# vtk DataFile Version 4.2
vtk output
ASCII
DATASET STRUCTURED_POINTS
DIMENSIONS 61 61 1
SPACING 1 1 1
ORIGIN -10 -10 0
POINT_DATA 3721
SCALARS X float
LOOKUP_TABLE default
-10 -9 -8 -7 -6 -5 -4 -3 -2 
-1 0 1 2 3 4 5 6 7 
8 9 10 11 12 13 14 15 16 
17 18 19 20 21 22 23 24 25 
26 27 28 29 30 31 32 33 34 
35 36 37 38 39 40 41 42 43 
44 45 46 47 48 49 50 -10 -9 
-8 -7 -6 -5 -4 -3 -2 -1 0 
1 2 3 4 5 6 7 8 9 
10 11 12 13 14 15 16 17 18 
19 20 21 22 23 24 25 26 27 
28 29 30 31 32 33 34 35 36 
37 38 39 40 41 42 43 44 45 
46 47 48 49 50 -10 -9 -8 -7 
-6 -5 -4 -3 -2 -1 0 1 2 
3 4 5 6 7 8 9 10 11 
12 13 14 15 16 17 18 19 20 
21 22 23 24 25 26 27 28 29 
30 31 32 33 34 35 36 37 38 
39 40 41 42 43 44 45 46 47 
48 49 50 -10 -9 -8 -7 -6 -5 
-4 -3 -2 -1 0 1 2 3 4 
5 6 7 8 9 10 11 12 13 
14 15 16 17 18 19 20 21 22 
23 24 25 26 27 28 29 30 31 
32 33 34 35 36 37 38 39 40 
41 42 43 44 45 46 47 48 49 
50 -10 -9 -8 -7 -6 -5 -4 -3 
-2 -1 0 1 2 3 4 5 6 
7 8 9 10 11 12 13 14 15 
16 17 18 19 20 21 22 23 24 
25 26 27 28 29 30 31 32 33 
34 35 36 37 38 39 40 41 42 
43 44 45 46 47 48 49 50 -10 
-9 -8 -7 -6 -5 -4 -3 -2 -1 
0 1 2 3 4 5 6 7 8 
9 10 11 12 13 14 15 16 17 
18 19 20 21 22 23 24 25 26 
27 28 29 30 31 32 33 34 35 
36 37 38 39 40 41 42 43 44 
45 46 47 48 49 50 -10 -9 -8 
-7 -6 -5 -4 -3 -2 -1 0 1 
2 3 4 5 6 7 8 9 10 
11 12 13 14 15 16 17 18 19 
20 21 22 23 24 25 26 27 28 
29 30 31 32 33 34 35 36 37 
38 39 40 41 42 43 44 45 46 
47 48 49 50 -10 -9 -8 -7 -6 
-5 -4 -3 -2 -1 0 1 2 3 
4 5 6 7 8 9 10 11 12 
13 14 15 16 17 18 19 20 21 
22 23 24 25 26 27 28 29 30 
31 32 33 34 35 36 37 38 39 
40 41 42 43 44 45 46 47 48 
49 50 -10 -9 -8 -7 -6 -5 -4 
-3 -2 -1 0 1 2 3 4 5 
6 7 8 9 10 11 12 13 14 
15 16 17 18 19 20 21 22 23 
24 25 26 27 28 29 30 31 32 
33 34 35 36 37 38 39 40 41 
42 43 44 45 46 47 48 49 50 
-10 -9 -8 -7 -6 -5 -4 -3 -2 
-1 0 1 2 3 4 5 6 7 
8 9 10 11 12 13 14 15 16 
17 18 19 20 21 22 23 24 25 
26 27 28 29 30 31 32 33 34 
35 36 37 38 39 40 41 42 43 
44 45 46 47 48 49 50 -10 -9 
-8 -7 -6 -5 -4 -3 -2 -1 0 
1 2 3 4 5 6 7 8 9 
10 11 12 13 14 15 16 17 18 
19 20 21 22 23 24 25 26 27 
28 29 30 31 32 33 34 35 36 
37 38 39 40 41 42 43 44 45 
46 47 48 49 50 -10 -9 -8 -7 
-6 -5 -4 -3 -2 -1 0 1 2 
3 4 5 6 7 8 9 10 11 
12 13 14 15 16 17 18 19 20 
21 22 23 24 25 26 27 28 29 
30 31 32 33 34 35 36 37 38 
39 40 41 42 43 44 45 46 47 
48 49 50 -10 -9 -8 -7 -6 -5 
-4 -3 -2 -1 0 1 2 3 4 
5 6 7 8 9 10 11 12 13 
14 15 16 17 18 19 20 21 22 
23 24 25 26 27 28 29 30 31 
32 33 34 35 36 37 38 39 40 
41 42 43 44 45 46 47 48 49 
50 -10 -9 -8 -7 -6 -5 -4 -3 
-2 -1 0 1 2 3 4 5 6 
7 8 9 10 11 12 13 14 15 
16 17 18 19 20 21 22 23 24 
25 26 27 28 29 30 31 32 33 
34 35 36 37 38 39 40 41 42 
43 44 45 46 47 48 49 50 -10 
-9 -8 -7 -6 -5 -4 -3 -2 -1 
0 1 2 3 4 5 6 7 8 
9 10 11 12 13 14 15 16 17 
18 19 20 21 22 23 24 25 26 
27 28 29 30 31 32 33 34 35 
36 37 38 39 40 41 42 43 44 
45 46 47 48 49 50 -10 -9 -8 
-7 -6 -5 -4 -3 -2 -1 0 1 
2 3 4 5 6 7 8 9 10 
11 12 13 14 15 16 17 18 19 
20 21 22 23 24 25 26 27 28 
29 30 31 32 33 34 35 36 37 
38 39 40 41 42 43 44 45 46 
47 48 49 50 -10 -9 -8 -7 -6 
-5 -4 -3 -2 -1 0 1 2 3 
4 5 6 7 8 9 10 11 12 
13 14 15 16 17 18 19 20 21 
22 23 24 25 26 27 28 29 30 
31 32 33 34 35 36 37 38 39 
40 41 42 43 44 45 46 47 48 
49 50 -10 -9 -8 -7 -6 -5 -4 
-3 -2 -1 0 1 2 3 4 5 
6 7 8 9 10 11 12 13 14 
15 16 17 18 19 20 21 22 23 
24 25 26 27 28 29 30 31 32 
33 34 35 36 37 38 39 40 41 
42 43 44 45 46 47 48 49 50 
-10 -9 -8 -7 -6 -5 -4 -3 -2 
-1 0 1 2 3 4 5 6 7 
8 9 10 11 12 13 14 15 16 
17 18 19 20 21 22 23 24 25 
26 27 28 29 30 31 32 33 34 
35 36 37 38 39 40 41 42 43 
44 45 46 47 48 49 50 -10 -9 
-8 -7 -6 -5 -4 -3 -2 -1 0 
1 2 3 4 5 6 7 8 9 
10 11 12 13 14 15 16 17 18 
19 20 21 22 23 24 25 26 27 
28 29 30 31 32 33 34 35 36 
37 38 39 40 41 42 43 44 45 
46 47 48 49 50 -10 -9 -8 -7 
-6 -5 -4 -3 -2 -1 0 1 2 
3 4 5 6 7 8 9 10 11 
12 13 14 15 16 17 18 19 20 
21 22 23 24 25 26 27 28 29 
30 31 32 33 34 35 36 37 38 
39 40 41 42 43 44 45 46 47 
48 49 50 -10 -9 -8 -7 -6 -5 
-4 -3 -2 -1 0 1 2 3 4 
5 6 7 8 9 10 11 12 13 
14 15 16 17 18 19 20 21 22 
23 24 25 26 27 28 29 30 31 
32 33 34 35 36 37 38 39 40 
41 42 43 44 45 46 47 48 49 
50 -10 -9 -8 -7 -6 -5 -4 -3 
-2 -1 0 1 2 3 4 5 6 
7 8 9 10 11 12 13 14 15 
16 17 18 19 20 21 22 23 24 
25 26 27 28 29 30 31 32 33 
34 35 36 37 38 39 40 41 42 
43 44 45 46 47 48 49 50 -10 
-9 -8 -7 -6 -5 -4 -3 -2 -1 
0 1 2 3 4 5 6 7 8 
9 10 11 12 13 14 15 16 17 
18 19 20 21 22 23 24 25 26 
27 28 29 30 31 32 33 34 35 
36 37 38 39 40 41 42 43 44 
45 46 47 48 49 50 -10 -9 -8 
-7 -6 -5 -4 -3 -2 -1 0 1 
2 3 4 5 6 7 8 9 10 
11 12 13 14 15 16 17 18 19 
20 21 22 23 24 25 26 27 28 
29 30 31 32 33 34 35 36 37 
38 39 40 41 42 43 44 45 46 
47 48 49 50 -10 -9 -8 -7 -6 
-5 -4 -3 -2 -1 0 1 2 3 
4 5 6 7 8 9 10 11 12 
13 14 15 16 17 18 19 20 21 
22 23 24 25 26 27 28 29 30 
31 32 33 34 35 36 37 38 39 
40 41 42 43 44 45 46 47 48 
49 50 -10 -9 -8 -7 -6 -5 -4 
-3 -2 -1 0 1 2 3 4 5 
6 7 8 9 10 11 12 13 14 
15 16 17 18 19 20 21 22 23 
24 25 26 27 28 29 30 31 32 
33 34 35 36 37 38 39 40 41 
42 43 44 45 46 47 48 49 50 
-10 -9 -8 -7 -6 -5 -4 -3 -2 
-1 0 1 2 3 4 5 6 7 
8 9 10 11 12 13 14 15 16 
17 18 19 20 21 22 23 24 25 
26 27 28 29 30 31 32 33 34 
35 36 37 38 39 40 41 42 43 
44 45 46 47 48 49 50 -10 -9 
-8 -7 -6 -5 -4 -3 -2 -1 0 
1 2 3 4 5 6 7 8 9 
10 11 12 13 14 15 16 17 18 
19 20 21 22 23 24 25 26 27 
28 29 30 31 32 33 34 35 36 
37 38 39 40 41 42 43 44 45 
46 47 48 49 50 -10 -9 -8 -7 
-6 -5 -4 -3 -2 -1 0 1 2 
3 4 5 6 7 8 9 10 11 
12 13 14 15 16 17 18 19 20 
21 22 23 24 25 26 27 28 29 
30 31 32 33 34 35 36 37 38 
39 40 41 42 43 44 45 46 47 
48 49 50 -10 -9 -8 -7 -6 -5 
-4 -3 -2 -1 0 1 2 3 4 
5 6 7 8 9 10 11 12 13 
14 15 16 17 18 19 20 21 22 
23 24 25 26 27 28 29 30 31 
32 33 34 35 36 37 38 39 40 
41 42 43 44 45 46 47 48 49 
50 -10 -9 -8 -7 -6 -5 -4 -3 
-2 -1 0 1 2 3 4 5 6 
7 8 9 10 11 12 13 14 15 
16 17 18 19 20 21 22 23 24 
25 26 27 28 29 30 31 32 33 
34 35 36 37 38 39 40 41 42 
43 44 45 46 47 48 49 50 -10 
-9 -8 -7 -6 -5 -4 -3 -2 -1 
0 1 2 3 4 5 6 7 8 
9 10 11 12 13 14 15 16 17 
18 19 20 21 22 23 24 25 26 
27 28 29 30 31 32 33 34 35 
36 37 38 39 40 41 42 43 44 
45 46 47 48 49 50 -10 -9 -8 
-7 -6 -5 -4 -3 -2 -1 0 1 
2 3 4 5 6 7 8 9 10 
11 12 13 14 15 16 17 18 19 
20 21 22 23 24 25 26 27 28 
29 30 31 32 33 34 35 36 37 
38 39 40 41 42 43 44 45 46 
47 48 49 50 -10 -9 -8 -7 -6 
-5 -4 -3 -2 -1 0 1 2 3 
4 5 6 7 8 9 10 11 12 
13 14 15 16 17 18 19 20 21 
22 23 24 25 26 27 28 29 30 
31 32 33 34 35 36 37 38 39 
40 41 42 43 44 45 46 47 48 
49 50 -10 -9 -8 -7 -6 -5 -4 
-3 -2 -1 0 1 2 3 4 5 
6 7 8 9 10 11 12 13 14 
15 16 17 18 19 20 21 22 23 
24 25 26 27 28 29 30 31 32 
33 34 35 36 37 38 39 40 41 
42 43 44 45 46 47 48 49 50 
-10 -9 -8 -7 -6 -5 -4 -3 -2 
-1 0 1 2 3 4 5 6 7 
8 9 10 11 12 13 14 15 16 
17 18 19 20 21 22 23 24 25 
26 27 28 29 30 31 32 33 34 
35 36 37 38 39 40 41 42 43 
44 45 46 47 48 49 50 -10 -9 
-8 -7 -6 -5 -4 -3 -2 -1 0 
1 2 3 4 5 6 7 8 9 
10 11 12 13 14 15 16 17 18 
19 20 21 22 23 24 25 26 27 
28 29 30 31 32 33 34 35 36 
37 38 39 40 41 42 43 44 45 
46 47 48 49 50 -10 -9 -8 -7 
-6 -5 -4 -3 -2 -1 0 1 2 
3 4 5 6 7 8 9 10 11 
12 13 14 15 16 17 18 19 20 
21 22 23 24 25 26 27 28 29 
30 31 32 33 34 35 36 37 38 
39 40 41 42 43 44 45 46 47 
48 49 50 -10 -9 -8 -7 -6 -5 
-4 -3 -2 -1 0 1 2 3 4 
5 6 7 8 9 10 11 12 13 
14 15 16 17 18 19 20 21 22 
23 24 25 26 27 28 29 30 31 
32 33 34 35 36 37 38 39 40 
41 42 43 44 45 46 47 48 49 
50 -10 -9 -8 -7 -6 -5 -4 -3 
-2 -1 0 1 2 3 4 5 6 
7 8 9 10 11 12 13 14 15 
16 17 18 19 20 21 22 23 24 
25 26 27 28 29 30 31 32 33 
34 35 36 37 38 39 40 41 42 
43 44 45 46 47 48 49 50 -10 
-9 -8 -7 -6 -5 -4 -3 -2 -1 
0 1 2 3 4 5 6 7 8 
9 10 11 12 13 14 15 16 17 
18 19 20 21 22 23 24 25 26 
27 28 29 30 31 32 33 34 35 
36 37 38 39 40 41 42 43 44 
45 46 47 48 49 50 -10 -9 -8 
-7 -6 -5 -4 -3 -2 -1 0 1 
2 3 4 5 6 7 8 9 10 
11 12 13 14 15 16 17 18 19 
20 21 22 23 24 25 26 27 28 
29 30 31 32 33 34 35 36 37 
38 39 40 41 42 43 44 45 46 
47 48 49 50 -10 -9 -8 -7 -6 
-5 -4 -3 -2 -1 0 1 2 3 
4 5 6 7 8 9 10 11 12 
13 14 15 16 17 18 19 20 21 
22 23 24 25 26 27 28 29 30 
31 32 33 34 35 36 37 38 39 
40 41 42 43 44 45 46 47 48 
49 50 -10 -9 -8 -7 -6 -5 -4 
-3 -2 -1 0 1 2 3 4 5 
6 7 8 9 10 11 12 13 14 
15 16 17 18 19 20 21 22 23 
24 25 26 27 28 29 30 31 32 
33 34 35 36 37 38 39 40 41 
42 43 44 45 46 47 48 49 50 
-10 -9 -8 -7 -6 -5 -4 -3 -2 
-1 0 1 2 3 4 5 6 7 
8 9 10 11 12 13 14 15 16 
17 18 19 20 21 22 23 24 25 
26 27 28 29 30 31 32 33 34 
35 36 37 38 39 40 41 42 43 
44 45 46 47 48 49 50 -10 -9 
-8 -7 -6 -5 -4 -3 -2 -1 0 
1 2 3 4 5 6 7 8 9 
10 11 12 13 14 15 16 17 18 
19 20 21 22 23 24 25 26 27 
28 29 30 31 32 33 34 35 36 
37 38 39 40 41 42 43 44 45 
46 47 48 49 50 -10 -9 -8 -7 
-6 -5 -4 -3 -2 -1 0 1 2 
3 4 5 6 7 8 9 10 11 
12 13 14 15 16 17 18 19 20 
21 22 23 24 25 26 27 28 29 
30 31 32 33 34 35 36 37 38 
39 40 41 42 43 44 45 46 47 
48 49 50 -10 -9 -8 -7 -6 -5 
-4 -3 -2 -1 0 1 2 3 4 
5 6 7 8 9 10 11 12 13 
14 15 16 17 18 19 20 21 22 
23 24 25 26 27 28 29 30 31 
32 33 34 35 36 37 38 39 40 
41 42 43 44 45 46 47 48 49 
50 -10 -9 -8 -7 -6 -5 -4 -3 
-2 -1 0 1 2 3 4 5 6 
7 8 9 10 11 12 13 14 15 
16 17 18 19 20 21 22 23 24 
25 26 27 28 29 30 31 32 33 
34 35 36 37 38 39 40 41 42 
43 44 45 46 47 48 49 50 -10 
-9 -8 -7 -6 -5 -4 -3 -2 -1 
0 1 2 3 4 5 6 7 8 
9 10 11 12 13 14 15 16 17 
18 19 20 21 22 23 24 25 26 
27 28 29 30 31 32 33 34 35 
36 37 38 39 40 41 42 43 44 
45 46 47 48 49 50 -10 -9 -8 
-7 -6 -5 -4 -3 -2 -1 0 1 
2 3 4 5 6 7 8 9 10 
11 12 13 14 15 16 17 18 19 
20 21 22 23 24 25 26 27 28 
29 30 31 32 33 34 35 36 37 
38 39 40 41 42 43 44 45 46 
47 48 49 50 -10 -9 -8 -7 -6 
-5 -4 -3 -2 -1 0 1 2 3 
4 5 6 7 8 9 10 11 12 
13 14 15 16 17 18 19 20 21 
22 23 24 25 26 27 28 29 30 
31 32 33 34 35 36 37 38 39 
40 41 42 43 44 45 46 47 48 
49 50 -10 -9 -8 -7 -6 -5 -4 
-3 -2 -1 0 1 2 3 4 5 
6 7 8 9 10 11 12 13 14 
15 16 17 18 19 20 21 22 23 
24 25 26 27 28 29 30 31 32 
33 34 35 36 37 38 39 40 41 
42 43 44 45 46 47 48 49 50 
-10 -9 -8 -7 -6 -5 -4 -3 -2 
-1 0 1 2 3 4 5 6 7 
8 9 10 11 12 13 14 15 16 
17 18 19 20 21 22 23 24 25 
26 27 28 29 30 31 32 33 34 
35 36 37 38 39 40 41 42 43 
44 45 46 47 48 49 50 -10 -9 
-8 -7 -6 -5 -4 -3 -2 -1 0 
1 2 3 4 5 6 7 8 9 
10 11 12 13 14 15 16 17 18 
19 20 21 22 23 24 25 26 27 
28 29 30 31 32 33 34 35 36 
37 38 39 40 41 42 43 44 45 
46 47 48 49 50 -10 -9 -8 -7 
-6 -5 -4 -3 -2 -1 0 1 2 
3 4 5 6 7 8 9 10 11 
12 13 14 15 16 17 18 19 20 
21 22 23 24 25 26 27 28 29 
30 31 32 33 34 35 36 37 38 
39 40 41 42 43 44 45 46 47 
48 49 50 -10 -9 -8 -7 -6 -5 
-4 -3 -2 -1 0 1 2 3 4 
5 6 7 8 9 10 11 12 13 
14 15 16 17 18 19 20 21 22 
23 24 25 26 27 28 29 30 31 
32 33 34 35 36 37 38 39 40 
41 42 43 44 45 46 47 48 49 
50 -10 -9 -8 -7 -6 -5 -4 -3 
-2 -1 0 1 2 3 4 5 6 
7 8 9 10 11 12 13 14 15 
16 17 18 19 20 21 22 23 24 
25 26 27 28 29 30 31 32 33 
34 35 36 37 38 39 40 41 42 
43 44 45 46 47 48 49 50 -10 
-9 -8 -7 -6 -5 -4 -3 -2 -1 
0 1 2 3 4 5 6 7 8 
9 10 11 12 13 14 15 16 17 
18 19 20 21 22 23 24 25 26 
27 28 29 30 31 32 33 34 35 
36 37 38 39 40 41 42 43 44 
45 46 47 48 49 50 -10 -9 -8 
-7 -6 -5 -4 -3 -2 -1 0 1 
2 3 4 5 6 7 8 9 10 
11 12 13 14 15 16 17 18 19 
20 21 22 23 24 25 26 27 28 
29 30 31 32 33 34 35 36 37 
38 39 40 41 42 43 44 45 46 
47 48 49 50 
METADATA
INFORMATION 0

VECTORS vectors double
-570 -3510 -0 -520 -3509 -0 -470 -3508 -0 
-420 -3507 -0 -370 -3506 -0 -320 -3505 -0 
-270 -3504 -0 -220 -3503 -0 -170 -3502 -0 
-120 -3501 -0 -70 -3500 -0 -20 -3499 -0 
30 -3498 0 80 -3497 0 130 -3496 0 
180 -3495 0 230 -3494 0 280 -3493 0 
330 -3492 0 380 -3491 0 430 -3490 0 
480 -3489 0 530 -3488 0 580 -3487 0 
630 -3486 0 680 -3485 0 730 -3484 0 
780 -3483 0 830 -3482 0 880 -3481 0 
930 -3480 0 980 -3479 0 1030 -3478 0 
1080 -3477 0 1130 -3476 0 1180 -3475 0 
1230 -3474 0 1280 -3473 0 1330 -3472 0 
1380 -3471 0 1430 -3470 0 1480 -3469 0 
1530 -3468 0 1580 -3467 0 1630 -3466 0 
1680 -3465 0 1730 -3464 0 1780 -3463 0 
1830 -3462 0 1880 -3461 0 1930 -3460 0 
1980 -3459 0 2030 -3458 0 2080 -3457 0 
2130 -3456 0 2180 -3455 0 2230 -3454 0 
2280 -3453 0 2330 -3452 0 2380 -3451 0 
2430 -3450 0 -563 -3160 -0 -513 -3159 -0 
-463 -3158 -0 -413 -3157 -0 -363 -3156 -0 
-313 -3155 -0 -263 -3154 -0 -213 -3153 -0 
-163 -3152 -0 -113 -3151 -0 -63 -3150 -0 
-13 -3149 -0 37 -3148 0 87 -3147 0 
137 -3146 0 187 -3145 0 237 -3144 0 
287 -3143 0 337 -3142 0 387 -3141 0 
437 -3140 0 487 -3139 0 537 -3138 0 
587 -3137 0 637 -3136 0 687 -3135 0 
737 -3134 0 787 -3133 0 837 -3132 0 
887 -3131 0 937 -3130 0 987 -3129 0 
1037 -3128 0 1087 -3127 0 1137 -3126 0 
1187 -3125 0 1237 -3124 0 1287 -3123 0 
1337 -3122 0 1387 -3121 0 1437 -3120 0 
1487 -3119 0 1537 -3118 0 1587 -3117 0 
1637 -3116 0 1687 -3115 0 1737 -3114 0 
1787 -3113 0 1837 -3112 0 1887 -3111 0 
1937 -3110 0 1987 -3109 0 2037 -3108 0 
2087 -3107 0 2137 -3106 0 2187 -3105 0 
2237 -3104 0 2287 -3103 0 2337 -3102 0 
2387 -3101 0 2437 -3100 0 -556 -2810 -0 
-506 -2809 -0 -456 -2808 -0 -406 -2807 -0 
-356 -2806 -0 -306 -2805 -0 -256 -2804 -0 
-206 -2803 -0 -156 -2802 -0 -106 -2801 -0 
-56 -2800 -0 -6 -2799 -0 44 -2798 0 
94 -2797 0 144 -2796 0 194 -2795 0 
244 -2794 0 294 -2793 0 344 -2792 0 
394 -2791 0 444 -2790 0 494 -2789 0 
544 -2788 0 594 -2787 0 644 -2786 0 
694 -2785 0 744 -2784 0 794 -2783 0 
844 -2782 0 894 -2781 0 944 -2780 0 
994 -2779 0 1044 -2778 0 1094 -2777 0 
1144 -2776 0 1194 -2775 0 1244 -2774 0 
1294 -2773 0 1344 -2772 0 1394 -2771 0 
1444 -2770 0 1494 -2769 0 1544 -2768 0 
1594 -2767 0 1644 -2766 0 1694 -2765 0 
1744 -2764 0 1794 -2763 0 1844 -2762 0 
1894 -2761 0 1944 -2760 0 1994 -2759 0 
2044 -2758 0 2094 -2757 0 2144 -2756 0 
2194 -2755 0 2244 -2754 0 2294 -2753 0 
2344 -2752 0 2394 -2751 0 2444 -2750 0 
-549 -2460 -0 -499 -2459 -0 -449 -2458 -0 
-399 -2457 -0 -349 -2456 -0 -299 -2455 -0 
-249 -2454 -0 -199 -2453 -0 -149 -2452 -0 
-99 -2451 -0 -49 -2450 -0 1 -2449 0 
51 -2448 0 101 -2447 0 151 -2446 0 
201 -2445 0 251 -2444 0 301 -2443 0 
351 -2442 0 401 -2441 0 451 -2440 0 
501 -2439 0 551 -2438 0 601 -2437 0 
651 -2436 0 701 -2435 0 751 -2434 0 
801 -2433 0 851 -2432 0 901 -2431 0 
951 -2430 0 1001 -2429 0 1051 -2428 0 
1101 -2427 0 1151 -2426 0 1201 -2425 0 
1251 -2424 0 1301 -2423 0 1351 -2422 0 
1401 -2421 0 1451 -2420 0 1501 -2419 0 
1551 -2418 0 1601 -2417 0 1651 -2416 0 
1701 -2415 0 1751 -2414 0 1801 -2413 0 
1851 -2412 0 1901 -2411 0 1951 -2410 0 
2001 -2409 0 2051 -2408 0 2101 -2407 0 
2151 -2406 0 2201 -2405 0 2251 -2404 0 
2301 -2403 0 2351 -2402 0 2401 -2401 0 
2451 -2400 0 -542 -2110 -0 -492 -2109 -0 
-442 -2108 -0 -392 -2107 -0 -342 -2106 -0 
-292 -2105 -0 -242 -2104 -0 -192 -2103 -0 
-142 -2102 -0 -92 -2101 -0 -42 -2100 -0 
8 -2099 0 58 -2098 0 108 -2097 0 
158 -2096 0 208 -2095 0 258 -2094 0 
308 -2093 0 358 -2092 0 408 -2091 0 
458 -2090 0 508 -2089 0 558 -2088 0 
608 -2087 0 658 -2086 0 708 -2085 0 
758 -2084 0 808 -2083 0 858 -2082 0 
908 -2081 0 958 -2080 0 1008 -2079 0 
1058 -2078 0 1108 -2077 0 1158 -2076 0 
1208 -2075 0 1258 -2074 0 1308 -2073 0 
1358 -2072 0 1408 -2071 0 1458 -2070 0 
1508 -2069 0 1558 -2068 0 1608 -2067 0 
1658 -2066 0 1708 -2065 0 1758 -2064 0 
1808 -2063 0 1858 -2062 0 1908 -2061 0 
1958 -2060 0 2008 -2059 0 2058 -2058 0 
2108 -2057 0 2158 -2056 0 2208 -2055 0 
2258 -2054 0 2308 -2053 0 2358 -2052 0 
2408 -2051 0 2458 -2050 0 -535 -1760 -0 
-485 -1759 -0 -435 -1758 -0 -385 -1757 -0 
-335 -1756 -0 -285 -1755 -0 -235 -1754 -0 
-185 -1753 -0 -135 -1752 -0 -85 -1751 -0 
-35 -1750 -0 15 -1749 0 65 -1748 0 
115 -1747 0 165 -1746 0 215 -1745 0 
265 -1744 0 315 -1743 0 365 -1742 0 
415 -1741 0 465 -1740 0 515 -1739 0 
565 -1738 0 615 -1737 0 665 -1736 0 
715 -1735 0 765 -1734 0 815 -1733 0 
865 -1732 0 915 -1731 0 965 -1730 0 
1015 -1729 0 1065 -1728 0 1115 -1727 0 
1165 -1726 0 1215 -1725 0 1265 -1724 0 
1315 -1723 0 1365 -1722 0 1415 -1721 0 
1465 -1720 0 1515 -1719 0 1565 -1718 0 
1615 -1717 0 1665 -1716 0 1715 -1715 0 
1765 -1714 0 1815 -1713 0 1865 -1712 0 
1915 -1711 0 1965 -1710 0 2015 -1709 0 
2065 -1708 0 2115 -1707 0 2165 -1706 0 
2215 -1705 0 2265 -1704 0 2315 -1703 0 
2365 -1702 0 2415 -1701 0 2465 -1700 0 
-528 -1410 -0 -478 -1409 -0 -428 -1408 -0 
-378 -1407 -0 -328 -1406 -0 -278 -1405 -0 
-228 -1404 -0 -178 -1403 -0 -128 -1402 -0 
-78 -1401 -0 -28 -1400 -0 22 -1399 0 
72 -1398 0 122 -1397 0 172 -1396 0 
222 -1395 0 272 -1394 0 322 -1393 0 
372 -1392 0 422 -1391 0 472 -1390 0 
522 -1389 0 572 -1388 0 622 -1387 0 
672 -1386 0 722 -1385 0 772 -1384 0 
822 -1383 0 872 -1382 0 922 -1381 0 
972 -1380 0 1022 -1379 0 1072 -1378 0 
1122 -1377 0 1172 -1376 0 1222 -1375 0 
1272 -1374 0 1322 -1373 0 1372 -1372 0 
1422 -1371 0 1472 -1370 0 1522 -1369 0 
1572 -1368 0 1622 -1367 0 1672 -1366 0 
1722 -1365 0 1772 -1364 0 1822 -1363 0 
1872 -1362 0 1922 -1361 0 1972 -1360 0 
2022 -1359 0 2072 -1358 0 2122 -1357 0 
2172 -1356 0 2222 -1355 0 2272 -1354 0 
2322 -1353 0 2372 -1352 0 2422 -1351 0 
2472 -1350 0 -521 -1060 -0 -471 -1059 -0 
-421 -1058 -0 -371 -1057 -0 -321 -1056 -0 
-271 -1055 -0 -221 -1054 -0 -171 -1053 -0 
-121 -1052 -0 -71 -1051 -0 -21 -1050 -0 
29 -1049 0 79 -1048 0 129 -1047 0 
179 -1046 0 229 -1045 0 279 -1044 0 
329 -1043 0 379 -1042 0 429 -1041 0 
479 -1040 0 529 -1039 0 579 -1038 0 
629 -1037 0 679 -1036 0 729 -1035 0 
779 -1034 0 829 -1033 0 879 -1032 0 
929 -1031 0 979 -1030 0 1029 -1029 0 
1079 -1028 0 1129 -1027 0 1179 -1026 0 
1229 -1025 0 1279 -1024 0 1329 -1023 0 
1379 -1022 0 1429 -1021 0 1479 -1020 0 
1529 -1019 0 1579 -1018 0 1629 -1017 0 
1679 -1016 0 1729 -1015 0 1779 -1014 0 
1829 -1013 0 1879 -1012 0 1929 -1011 0 
1979 -1010 0 2029 -1009 0 2079 -1008 0 
2129 -1007 0 2179 -1006 0 2229 -1005 0 
2279 -1004 0 2329 -1003 0 2379 -1002 0 
2429 -1001 0 2479 -1000 0 -514 -710 -0 
-464 -709 -0 -414 -708 -0 -364 -707 -0 
-314 -706 -0 -264 -705 -0 -214 -704 -0 
-164 -703 -0 -114 -702 -0 -64 -701 -0 
-14 -700 -0 36 -699 0 86 -698 0 
136 -697 0 186 -696 0 236 -695 0 
286 -694 0 336 -693 0 386 -692 0 
436 -691 0 486 -690 0 536 -689 0 
586 -688 0 636 -687 0 686 -686 0 
736 -685 0 786 -684 0 836 -683 0 
886 -682 0 936 -681 0 986 -680 0 
1036 -679 0 1086 -678 0 1136 -677 0 
1186 -676 0 1236 -675 0 1286 -674 0 
1336 -673 0 1386 -672 0 1436 -671 0 
1486 -670 0 1536 -669 0 1586 -668 0 
1636 -667 0 1686 -666 0 1736 -665 0 
1786 -664 0 1836 -663 0 1886 -662 0 
1936 -661 0 1986 -660 0 2036 -659 0 
2086 -658 0 2136 -657 0 2186 -656 0 
2236 -655 0 2286 -654 0 2336 -653 0 
2386 -652 0 2436 -651 0 2486 -650 0 
-507 -360 -0 -457 -359 -0 -407 -358 -0 
-357 -357 -0 -307 -356 -0 -257 -355 -0 
-207 -354 -0 -157 -353 -0 -107 -352 -0 
-57 -351 -0 -7 -350 -0 43 -349 0 
93 -348 0 143 -347 0 193 -346 0 
243 -345 0 293 -344 0 343 -343 0 
393 -342 0 443 -341 0 493 -340 0 
543 -339 0 593 -338 0 643 -337 0 
693 -336 0 743 -335 0 793 -334 0 
843 -333 0 893 -332 0 943 -331 0 
993 -330 0 1043 -329 0 1093 -328 0 
1143 -327 0 1193 -326 0 1243 -325 0 
1293 -324 0 1343 -323 0 1393 -322 0 
1443 -321 0 1493 -320 0 1543 -319 0 
1593 -318 0 1643 -317 0 1693 -316 0 
1743 -315 0 1793 -314 0 1843 -313 0 
1893 -312 0 1943 -311 0 1993 -310 0 
2043 -309 0 2093 -308 0 2143 -307 0 
2193 -306 0 2243 -305 0 2293 -304 0 
2343 -303 0 2393 -302 0 2443 -301 0 
2493 -300 0 -500 -10 -0 -450 -9 -0 
-400 -8 -0 -350 -7 -0 -300 -6 -0 
-250 -5 -0 -200 -4 -0 -150 -3 -0 
-100 -2 -0 -50 -1 -0 0 0 0 
50 1 0 100 2 0 150 3 0 
200 4 0 250 5 0 300 6 0 
350 7 0 400 8 0 450 9 0 
500 10 0 550 11 0 600 12 0 
650 13 0 700 14 0 750 15 0 
800 16 0 850 17 0 900 18 0 
950 19 0 1000 20 0 1050 21 0 
1100 22 0 1150 23 0 1200 24 0 
1250 25 0 1300 26 0 1350 27 0 
1400 28 0 1450 29 0 1500 30 0 
1550 31 0 1600 32 0 1650 33 0 
1700 34 0 1750 35 0 1800 36 0 
1850 37 0 1900 38 0 1950 39 0 
2000 40 0 2050 41 0 2100 42 0 
2150 43 0 2200 44 0 2250 45 0 
2300 46 0 2350 47 0 2400 48 0 
2450 49 0 2500 50 0 -493 340 0 
-443 341 0 -393 342 0 -343 343 0 
-293 344 0 -243 345 0 -193 346 0 
-143 347 0 -93 348 0 -43 349 0 
7 350 0 57 351 0 107 352 0 
157 353 0 207 354 0 257 355 0 
307 356 0 357 357 0 407 358 0 
457 359 0 507 360 0 557 361 0 
607 362 0 657 363 0 707 364 0 
757 365 0 807 366 0 857 367 0 
907 368 0 957 369 0 1007 370 0 
1057 371 0 1107 372 0 1157 373 0 
1207 374 0 1257 375 0 1307 376 0 
1357 377 0 1407 378 0 1457 379 0 
1507 380 0 1557 381 0 1607 382 0 
1657 383 0 1707 384 0 1757 385 0 
1807 386 0 1857 387 0 1907 388 0 
1957 389 0 2007 390 0 2057 391 0 
2107 392 0 2157 393 0 2207 394 0 
2257 395 0 2307 396 0 2357 397 0 
2407 398 0 2457 399 0 2507 400 0 
-486 690 0 -436 691 0 -386 692 0 
-336 693 0 -286 694 0 -236 695 0 
-186 696 0 -136 697 0 -86 698 0 
-36 699 0 14 700 0 64 701 0 
114 702 0 164 703 0 214 704 0 
264 705 0 314 706 0 364 707 0 
414 708 0 464 709 0 514 710 0 
564 711 0 614 712 0 664 713 0 
714 714 0 764 715 0 814 716 0 
864 717 0 914 718 0 964 719 0 
1014 720 0 1064 721 0 1114 722 0 
1164 723 0 1214 724 0 1264 725 0 
1314 726 0 1364 727 0 1414 728 0 
1464 729 0 1514 730 0 1564 731 0 
1614 732 0 1664 733 0 1714 734 0 
1764 735 0 1814 736 0 1864 737 0 
1914 738 0 1964 739 0 2014 740 0 
2064 741 0 2114 742 0 2164 743 0 
2214 744 0 2264 745 0 2314 746 0 
2364 747 0 2414 748 0 2464 749 0 
2514 750 0 -479 1040 0 -429 1041 0 
-379 1042 0 -329 1043 0 -279 1044 0 
-229 1045 0 -179 1046 0 -129 1047 0 
-79 1048 0 -29 1049 0 21 1050 0 
71 1051 0 121 1052 0 171 1053 0 
221 1054 0 271 1055 0 321 1056 0 
371 1057 0 421 1058 0 471 1059 0 
521 1060 0 571 1061 0 621 1062 0 
671 1063 0 721 1064 0 771 1065 0 
821 1066 0 871 1067 0 921 1068 0 
971 1069 0 1021 1070 0 1071 1071 0 
1121 1072 0 1171 1073 0 1221 1074 0 
1271 1075 0 1321 1076 0 1371 1077 0 
1421 1078 0 1471 1079 0 1521 1080 0 
1571 1081 0 1621 1082 0 1671 1083 0 
1721 1084 0 1771 1085 0 1821 1086 0 
1871 1087 0 1921 1088 0 1971 1089 0 
2021 1090 0 2071 1091 0 2121 1092 0 
2171 1093 0 2221 1094 0 2271 1095 0 
2321 1096 0 2371 1097 0 2421 1098 0 
2471 1099 0 2521 1100 0 -472 1390 0 
-422 1391 0 -372 1392 0 -322 1393 0 
-272 1394 0 -222 1395 0 -172 1396 0 
-122 1397 0 -72 1398 0 -22 1399 0 
28 1400 0 78 1401 0 128 1402 0 
178 1403 0 228 1404 0 278 1405 0 
328 1406 0 378 1407 0 428 1408 0 
478 1409 0 528 1410 0 578 1411 0 
628 1412 0 678 1413 0 728 1414 0 
778 1415 0 828 1416 0 878 1417 0 
928 1418 0 978 1419 0 1028 1420 0 
1078 1421 0 1128 1422 0 1178 1423 0 
1228 1424 0 1278 1425 0 1328 1426 0 
1378 1427 0 1428 1428 0 1478 1429 0 
1528 1430 0 1578 1431 0 1628 1432 0 
1678 1433 0 1728 1434 0 1778 1435 0 
1828 1436 0 1878 1437 0 1928 1438 0 
1978 1439 0 2028 1440 0 2078 1441 0 
2128 1442 0 2178 1443 0 2228 1444 0 
2278 1445 0 2328 1446 0 2378 1447 0 
2428 1448 0 2478 1449 0 2528 1450 0 
-465 1740 0 -415 1741 0 -365 1742 0 
-315 1743 0 -265 1744 0 -215 1745 0 
-165 1746 0 -115 1747 0 -65 1748 0 
-15 1749 0 35 1750 0 85 1751 0 
135 1752 0 185 1753 0 235 1754 0 
285 1755 0 335 1756 0 385 1757 0 
435 1758 0 485 1759 0 535 1760 0 
585 1761 0 635 1762 0 685 1763 0 
735 1764 0 785 1765 0 835 1766 0 
885 1767 0 935 1768 0 985 1769 0 
1035 1770 0 1085 1771 0 1135 1772 0 
1185 1773 0 1235 1774 0 1285 1775 0 
1335 1776 0 1385 1777 0 1435 1778 0 
1485 1779 0 1535 1780 0 1585 1781 0 
1635 1782 0 1685 1783 0 1735 1784 0 
1785 1785 0 1835 1786 0 1885 1787 0 
1935 1788 0 1985 1789 0 2035 1790 0 
2085 1791 0 2135 1792 0 2185 1793 0 
2235 1794 0 2285 1795 0 2335 1796 0 
2385 1797 0 2435 1798 0 2485 1799 0 
2535 1800 0 -458 2090 0 -408 2091 0 
-358 2092 0 -308 2093 0 -258 2094 0 
-208 2095 0 -158 2096 0 -108 2097 0 
-58 2098 0 -8 2099 0 42 2100 0 
92 2101 0 142 2102 0 192 2103 0 
242 2104 0 292 2105 0 342 2106 0 
392 2107 0 442 2108 0 492 2109 0 
542 2110 0 592 2111 0 642 2112 0 
692 2113 0 742 2114 0 792 2115 0 
842 2116 0 892 2117 0 942 2118 0 
992 2119 0 1042 2120 0 1092 2121 0 
1142 2122 0 1192 2123 0 1242 2124 0 
1292 2125 0 1342 2126 0 1392 2127 0 
1442 2128 0 1492 2129 0 1542 2130 0 
1592 2131 0 1642 2132 0 1692 2133 0 
1742 2134 0 1792 2135 0 1842 2136 0 
1892 2137 0 1942 2138 0 1992 2139 0 
2042 2140 0 2092 2141 0 2142 2142 0 
2192 2143 0 2242 2144 0 2292 2145 0 
2342 2146 0 2392 2147 0 2442 2148 0 
2492 2149 0 2542 2150 0 -451 2440 0 
-401 2441 0 -351 2442 0 -301 2443 0 
-251 2444 0 -201 2445 0 -151 2446 0 
-101 2447 0 -51 2448 0 -1 2449 0 
49 2450 0 99 2451 0 149 2452 0 
199 2453 0 249 2454 0 299 2455 0 
349 2456 0 399 2457 0 449 2458 0 
499 2459 0 549 2460 0 599 2461 0 
649 2462 0 699 2463 0 749 2464 0 
799 2465 0 849 2466 0 899 2467 0 
949 2468 0 999 2469 0 1049 2470 0 
1099 2471 0 1149 2472 0 1199 2473 0 
1249 2474 0 1299 2475 0 1349 2476 0 
1399 2477 0 1449 2478 0 1499 2479 0 
1549 2480 0 1599 2481 0 1649 2482 0 
1699 2483 0 1749 2484 0 1799 2485 0 
1849 2486 0 1899 2487 0 1949 2488 0 
1999 2489 0 2049 2490 0 2099 2491 0 
2149 2492 0 2199 2493 0 2249 2494 0 
2299 2495 0 2349 2496 0 2399 2497 0 
2449 2498 0 2499 2499 0 2549 2500 0 
-444 2790 0 -394 2791 0 -344 2792 0 
-294 2793 0 -244 2794 0 -194 2795 0 
-144 2796 0 -94 2797 0 -44 2798 0 
6 2799 0 56 2800 0 106 2801 0 
156 2802 0 206 2803 0 256 2804 0 
306 2805 0 356 2806 0 406 2807 0 
456 2808 0 506 2809 0 556 2810 0 
606 2811 0 656 2812 0 706 2813 0 
756 2814 0 806 2815 0 856 2816 0 
906 2817 0 956 2818 0 1006 2819 0 
1056 2820 0 1106 2821 0 1156 2822 0 
1206 2823 0 1256 2824 0 1306 2825 0 
1356 2826 0 1406 2827 0 1456 2828 0 
1506 2829 0 1556 2830 0 1606 2831 0 
1656 2832 0 1706 2833 0 1756 2834 0 
1806 2835 0 1856 2836 0 1906 2837 0 
1956 2838 0 2006 2839 0 2056 2840 0 
2106 2841 0 2156 2842 0 2206 2843 0 
2256 2844 0 2306 2845 0 2356 2846 0 
2406 2847 0 2456 2848 0 2506 2849 0 
2556 2850 0 -437 3140 0 -387 3141 0 
-337 3142 0 -287 3143 0 -237 3144 0 
-187 3145 0 -137 3146 0 -87 3147 0 
-37 3148 0 13 3149 0 63 3150 0 
113 3151 0 163 3152 0 213 3153 0 
263 3154 0 313 3155 0 363 3156 0 
413 3157 0 463 3158 0 513 3159 0 
563 3160 0 613 3161 0 663 3162 0 
713 3163 0 763 3164 0 813 3165 0 
863 3166 0 913 3167 0 963 3168 0 
1013 3169 0 1063 3170 0 1113 3171 0 
1163 3172 0 1213 3173 0 1263 3174 0 
1313 3175 0 1363 3176 0 1413 3177 0 
1463 3178 0 1513 3179 0 1563 3180 0 
1613 3181 0 1663 3182 0 1713 3183 0 
1763 3184 0 1813 3185 0 1863 3186 0 
1913 3187 0 1963 3188 0 2013 3189 0 
2063 3190 0 2113 3191 0 2163 3192 0 
2213 3193 0 2263 3194 0 2313 3195 0 
2363 3196 0 2413 3197 0 2463 3198 0 
2513 3199 0 2563 3200 0 -430 3490 0 
-380 3491 0 -330 3492 0 -280 3493 0 
-230 3494 0 -180 3495 0 -130 3496 0 
-80 3497 0 -30 3498 0 20 3499 0 
70 3500 0 120 3501 0 170 3502 0 
220 3503 0 270 3504 0 320 3505 0 
370 3506 0 420 3507 0 470 3508 0 
520 3509 0 570 3510 0 620 3511 0 
670 3512 0 720 3513 0 770 3514 0 
820 3515 0 870 3516 0 920 3517 0 
970 3518 0 1020 3519 0 1070 3520 0 
1120 3521 0 1170 3522 0 1220 3523 0 
1270 3524 0 1320 3525 0 1370 3526 0 
1420 3527 0 1470 3528 0 1520 3529 0 
1570 3530 0 1620 3531 0 1670 3532 0 
1720 3533 0 1770 3534 0 1820 3535 0 
1870 3536 0 1920 3537 0 1970 3538 0 
2020 3539 0 2070 3540 0 2120 3541 0 
2170 3542 0 2220 3543 0 2270 3544 0 
2320 3545 0 2370 3546 0 2420 3547 0 
2470 3548 0 2520 3549 0 2570 3550 0 
-423 3840 0 -373 3841 0 -323 3842 0 
-273 3843 0 -223 3844 0 -173 3845 0 
-123 3846 0 -73 3847 0 -23 3848 0 
27 3849 0 77 3850 0 127 3851 0 
177 3852 0 227 3853 0 277 3854 0 
327 3855 0 377 3856 0 427 3857 0 
477 3858 0 527 3859 0 577 3860 0 
627 3861 0 677 3862 0 727 3863 0 
777 3864 0 827 3865 0 877 3866 0 
927 3867 0 977 3868 0 1027 3869 0 
1077 3870 0 1127 3871 0 1177 3872 0 
1227 3873 0 1277 3874 0 1327 3875 0 
1377 3876 0 1427 3877 0 1477 3878 0 
1527 3879 0 1577 3880 0 1627 3881 0 
1677 3882 0 1727 3883 0 1777 3884 0 
1827 3885 0 1877 3886 0 1927 3887 0 
1977 3888 0 2027 3889 0 2077 3890 0 
2127 3891 0 2177 3892 0 2227 3893 0 
2277 3894 0 2327 3895 0 2377 3896 0 
2427 3897 0 2477 3898 0 2527 3899 0 
2577 3900 0 -416 4190 0 -366 4191 0 
-316 4192 0 -266 4193 0 -216 4194 0 
-166 4195 0 -116 4196 0 -66 4197 0 
-16 4198 0 34 4199 0 84 4200 0 
134 4201 0 184 4202 0 234 4203 0 
284 4204 0 334 4205 0 384 4206 0 
434 4207 0 484 4208 0 534 4209 0 
584 4210 0 634 4211 0 684 4212 0 
734 4213 0 784 4214 0 834 4215 0 
884 4216 0 934 4217 0 984 4218 0 
1034 4219 0 1084 4220 0 1134 4221 0 
1184 4222 0 1234 4223 0 1284 4224 0 
1334 4225 0 1384 4226 0 1434 4227 0 
1484 4228 0 1534 4229 0 1584 4230 0 
1634 4231 0 1684 4232 0 1734 4233 0 
1784 4234 0 1834 4235 0 1884 4236 0 
1934 4237 0 1984 4238 0 2034 4239 0 
2084 4240 0 2134 4241 0 2184 4242 0 
2234 4243 0 2284 4244 0 2334 4245 0 
2384 4246 0 2434 4247 0 2484 4248 0 
2534 4249 0 2584 4250 0 -409 4540 0 
-359 4541 0 -309 4542 0 -259 4543 0 
-209 4544 0 -159 4545 0 -109 4546 0 
-59 4547 0 -9 4548 0 41 4549 0 
91 4550 0 141 4551 0 191 4552 0 
241 4553 0 291 4554 0 341 4555 0 
391 4556 0 441 4557 0 491 4558 0 
541 4559 0 591 4560 0 641 4561 0 
691 4562 0 741 4563 0 791 4564 0 
841 4565 0 891 4566 0 941 4567 0 
991 4568 0 1041 4569 0 1091 4570 0 
1141 4571 0 1191 4572 0 1241 4573 0 
1291 4574 0 1341 4575 0 1391 4576 0 
1441 4577 0 1491 4578 0 1541 4579 0 
1591 4580 0 1641 4581 0 1691 4582 0 
1741 4583 0 1791 4584 0 1841 4585 0 
1891 4586 0 1941 4587 0 1991 4588 0 
2041 4589 0 2091 4590 0 2141 4591 0 
2191 4592 0 2241 4593 0 2291 4594 0 
2341 4595 0 2391 4596 0 2441 4597 0 
2491 4598 0 2541 4599 0 2591 4600 0 
-402 4890 0 -352 4891 0 -302 4892 0 
-252 4893 0 -202 4894 0 -152 4895 0 
-102 4896 0 -52 4897 0 -2 4898 0 
48 4899 0 98 4900 0 148 4901 0 
198 4902 0 248 4903 0 298 4904 0 
348 4905 0 398 4906 0 448 4907 0 
498 4908 0 548 4909 0 598 4910 0 
648 4911 0 698 4912 0 748 4913 0 
798 4914 0 848 4915 0 898 4916 0 
948 4917 0 998 4918 0 1048 4919 0 
1098 4920 0 1148 4921 0 1198 4922 0 
1248 4923 0 1298 4924 0 1348 4925 0 
1398 4926 0 1448 4927 0 1498 4928 0 
1548 4929 0 1598 4930 0 1648 4931 0 
1698 4932 0 1748 4933 0 1798 4934 0 
1848 4935 0 1898 4936 0 1948 4937 0 
1998 4938 0 2048 4939 0 2098 4940 0 
2148 4941 0 2198 4942 0 2248 4943 0 
2298 4944 0 2348 4945 0 2398 4946 0 
2448 4947 0 2498 4948 0 2548 4949 0 
2598 4950 0 -395 5240 0 -345 5241 0 
-295 5242 0 -245 5243 0 -195 5244 0 
-145 5245 0 -95 5246 0 -45 5247 0 
5 5248 0 55 5249 0 105 5250 0 
155 5251 0 205 5252 0 255 5253 0 
305 5254 0 355 5255 0 405 5256 0 