# vtk DataFile Version 4.2
vtk output
ASCII
DATASET STRUCTURED_POINTS
DIMENSIONS 41 41 21
SPACING 1 1 2
ORIGIN 60 60 40
POINT_DATA 35301
SCALARS Scalars_ unsigned_short
LOOKUP_TABLE default
1140 1166 1365 1701 2087 2368 2489 2501 2383 
2169 2268 2295 1848 1383 1185 1129 1117 1121 
1107 1103 1099 1108 1107 1091 1119 1078 1084 
1092 1080 1105 1104 1077 1054 1073 1084 1093 
1097 1081 1102 1099 1095 1183 1323 1583 2048 
2337 2512 2541 2461 2376 2288 2304 2056 1504 
1201 1127 1113 1132 1103 1097 1113 1108 1114 
1084 1092 1110 1098 1097 1098 1082 1102 1074 
1072 1096 1100 1102 1098 1086 1078 1096 1088 
1094 1376 1578 1858 2292 2516 2543 2519 2415 
2367 2398 2186 1704 1289 1124 1129 1112 1111 
1112 1097 1117 1085 1084 1091 1104 1109 1087 
1091 1081 1091 1080 1078 1098 1099 1094 1101 
1106 1089 1089 1099 1108 1089 1786 1976 2116 
2341 2561 2559 2528 2455 2443 2371 1950 1418 
1184 1113 1090 1104 1127 1125 1113 1121 1089 
1074 1097 1108 1103 1097 1093 1103 1107 1076 
1091 1079 1109 1105 1100 1087 1096 1085 1103 
1101 1093 2133 2347 2297 2271 2473 2578 2566 
2512 2503 2214 1616 1229 1150 1130 1120 1116 
1094 1109 1101 1120 1095 1069 1098 1105 1098 
1087 1090 1088 1101 1098 1089 1076 1094 1083 
1105 1092 1095 1098 1104 1114 1098 2400 2545 
2425 2160 2235 2495 2570 2543 2422 1940 1383 
1152 1127 1109 1095 1102 1083 1095 1099 1117 
1094 1094 1117 1117 1077 1106 1075 1107 1104 
1088 1087 1089 1092 1085 1087 1069 1088 1091 
1087 1084 1079 2521 2576 2546 2205 2051 2298 
2534 2529 2253 1674 1278 1138 1122 1111 1111 
1118 1110 1120 1104 1098 1091 1089 1083 1092 
1107 1114 1104 1094 1078 1077 1078 1087 1084 
1096 1085 1089 1085 1088 1089 1073 1079 2535 
2532 2541 2437 2084 2059 2384 2397 1931 1409 
1146 1117 1108 1102 1096 1106 1106 1129 1099 
1114 1086 1081 1109 1110 1111 1099 1101 1085 
1082 1102 1094 1107 1092 1097 1093 1068 1096 
1071 1086 1093 1089 2479 2502 2553 2520 2359 
2113 2149 2060 1629 1240 1129 1095 1104 1101 
1117 1102 1102 1085 1092 1086 1111 1109 1116 
1093 1081 1099 1104 1095 1097 1107 1120 1080 
1092 1088 1087 1079 1093 1101 1080 1099 1090 
2489 2519 2568 2539 2523 2377 2040 1694 1356 
1160 1114 1097 1120 1103 1098 1088 1096 1093 
1106 1117 1105 1091 1097 1089 1090 1110 1085 
1107 1089 1100 1096 1095 1096 1096 1082 1072 
1071 1075 1095 1096 1086 2485 2532 2535 2500 
2518 2409 1996 1450 1213 1110 1112 1094 1091 
1117 1102 1091 1101 1126 1112 1104 1085 1097 
1098 1117 1098 1111 1103 1093 1072 1105 1111 
1088 1121 1096 1088 1051 1083 1090 1082 1097 
1055 2527 2528 2476 2418 2414 2243 1765 1273 
1132 1103 1111 1097 1105 1093 1112 1100 1108 
1094 1098 1101 1098 1098 1099 1102 1094 1098 
1101 1085 1106 1102 1100 1072 1089 1077 1088 
1085 1089 1090 1077 1057 1092 2553 2512 2363 
2353 2367 2056 1528 1197 1105 1095 1095 1092 
1107 1101 1093 1091 1099 1083 1106 1099 1100 
1107 1106 1105 1103 1101 1102 1102 1090 1082 
1089 1091 1090 1074 1070 1100 1079 1099 1072 
1053 1074 2569 2422 2273 2306 2309 1887 1375 
1163 1111 1082 1093 1097 1101 1089 1096 1108 
1132 1117 1087 1110 1116 1099 1109 1079 1105 
1089 1104 1098 1096 1084 1080 1091 1072 1071 
1078 1072 1072 1087 1100 1094 1091 2500 2265 
2142 2279 2208 1753 1297 1116 1106 1079 1120 
1107 1098 1100 1102 1095 1108 1114 1102 1087 
1109 1095 1099 1105 1109 1100 1102 1101 1079 
1090 1090 1083 1087 1086 1088 1086 1071 1089 
1103 1092 1082 2393 2122 2073 2263 2172 1657 
1245 1092 1106 1100 1098 1107 1106 1079 1064 
1103 1095 1101 1115 1082 1085 1098 1088 1111 
1103 1106 1104 1113 1085 1089 1084 1063 1073 
1072 1091 1068 1090 1056 1075 1083 1079 2217 
1945 1978 2252 2148 1659 1223 1124 1126 1092 
1072 1071 1095 1096 1097 1099 1116 1087 1083 
1099 1116 1098 1118 1127 1084 1104 1082 1094 
1078 1072 1087 1102 1082 1081 1077 1096 1101 
1096 1097 1084 1080 1961 1748 1920 2244 2148 
1644 1236 1117 1103 1071 1072 1086 1079 1097 
1106 1098 1101 1092 1075 1076 1116 1120 1104 
1084 1092 1115 1107 1081 1085 1076 1082 1073 
1082 1071 1072 1093 1099 1074 1073 1091 1068 
1668 1583 1927 2272 2117 1588 1192 1099 1065 
1114 1080 1100 1088 1098 1099 1103 1088 1083 
1101 1090 1106 1102 1081 1066 1076 1082 1094 
1088 1085 1077 1092 1064 1082 1067 1079 1084 
1090 1091 1084 1056 1070 1374 1480 1934 2295 
2037 1476 1156 1104 1108 1096 1084 1098 1111 
1113 1093 1095 1103 1076 1090 1091 1100 1092 
1102 1079 1092 1070 1071 1110 1061 1076 1079 
1069 1064 1102 1087 1080 1082 1088 1071 1078 
1071 1195 1328 1806 2048 1668 1278 1089 1085 
1072 1085 1074 1088 1095 1097 1091 1077 1083 
1086 1087 1091 1100 1074 1081 1106 1086 1096 
1074 1074 1085 1080 1080 1072 1076 1088 1067 
1084 1087 1080 1074 1065 1086 1129 1172 1386 
1437 1226 1121 1096 1068 1080 1046 1059 1064 
1077 1076 1084 1098 1084 1083 1116 1101 1100 
1082 1088 1100 1102 1089 1070 1081 1084 1094 
1076 1073 1086 1096 1102 1089 1080 1076 1069 
1064 1103 1121 1111 1105 1079 1048 1040 1073 
1075 1075 1082 1108 1080 1088 1079 1098 1079 
1079 1088 1102 1104 1111 1063 1089 1093 1104 
1086 1039 1082 1075 1076 1079 1086 1060 1079 
1094 1073 1089 1076 1084 1071 1084 1171 1095 
1055 1060 1064 1038 1071 1065 1054 1075 1101 
1063 1066 1074 1109 1082 1090 1093 1084 1086 
1084 1077 1081 1087 1080 1068 1051 1076 1063 
1057 1079 1084 1077 1091 1096 1076 1076 1072 
1064 1069 1079 1167 1082 1075 1061 1057 1075 
1067 1085 1070 1080 1092 1094 1085 1065 1073 
1063 1082 1094 1099 1117 1102 1102 1107 1100 
1076 1071 1079 1083 1049 1067 1077 1091 1079 
1101 1109 1095 1070 1087 1075 1082 1101 1178 
1040 1059 1087 1065 1079 1064 1068 1082 1066 
1068 1108 1076 1076 1077 1069 1093 1111 1088 
1091 1092 1091 1093 1081 1087 1067 1076 1073 
1064 1060 1077 1103 1106 1068 1088 1110 1083 
1072 1075 1056 1098 1195 1068 1070 1068 1070 
1051 1067 1071 1081 1039 1064 1086 1060 1083 
1072 1091 1102 1093 1096 1099 1110 1109 1106 
1088 1069 1072 1075 1041 1050 1073 1079 1103 
1094 1078 1091 1076 1061 1063 1083 1063 1079 
1387 1122 1107 1093 1042 1050 1054 1091 1087 
1058 1076 1100 1084 1063 1071 1097 1087 1068 
1096 1103 1097 1112 1112 1093 1106 1066 1058 
1060 1056 1073 1084 1103 1085 1085 1083 1094 
1072 1058 1094 1104 1079 1723 1340 1136 1086 
1077 1051 1072 1059 1076 1121 1068 1096 1114 
1061 1078 1076 1113 1086 1102 1083 1113 1120 
1124 1101 1081 1075 1065 1074 1035 1090 1099 
1094 1095 1090 1082 1098 1066 1082 1096 1084 
1090 1766 1730 1370 1146 1074 1073 1086 1071 
1086 1075 1091 1111 1107 1065 1077 1071 1124 
1121 1089 1083 1077 1095 1092 1092 1106 1092 
1093 1099 1098 1064 1096 1066 1103 1097 1092 
1075 1063 1066 1089 1087 1097 1495 1700 1654 
1427 1200 1109 1058 1079 1067 1115 1080 1110 
1090 1083 1117 1094 1127 1120 1109 1087 1087 
1070 1082 1078 1095 1063 1068 1091 1092 1070 
1124 1078 1078 1099 1102 1081 1082 1067 1083 
1082 1085 1270 1250 1552 1788 1611 1375 1244 
1197 1217 1284 1276 1224 1230 1240 1189 1174 
1142 1129 1115 1094 1067 1068 1100 1059 1086 
1081 1068 1076 1090 1112 1096 1068 1086 1070 
1076 1082 1067 1091 1095 1092 1075 983 990 
1078 1382 1770 2011 1929 1847 1919 1980 1963 
1946 1908 1816 1679 1522 1398 1292 1203 1147 
1107 1103 1105 1093 1092 1076 1088 1079 1116 
1118 1097 1105 1083 1084 1087 1079 1087 1106 
1076 1116 1109 641 759 818 971 1542 2104 
2284 2213 2141 2121 2174 2218 2268 2290 2153 
2042 1912 1803 1599 1447 1320 1248 1191 1140 
1119 1083 1121 1115 1105 1115 1115 1107 1098 
1109 1076 1088 1074 1091 1122 1106 1112 497 
837 1000 1343 1710 1871 1930 1746 1328 1158 
1286 1365 1635 1763 1653 1717 1967 2134 2118 
1979 1744 1553 1477 1296 1167 1112 1083 1085 
1125 1127 1107 1113 1117 1093 1094 1079 1057 
1111 1123 1121 1103 612 976 993 1262 1766 
1711 1694 1645 1277 1029 1203 1289 1203 948 
670 857 1434 1941 2202 2253 2097 1961 1938 
1775 1513 1289 1131 1124 1106 1107 1108 1094 
1111 1098 1111 1071 1077 1110 1092 1096 1106 
658 941 1029 1176 1549 1668 1786 2060 1966 
1598 1485 1564 1134 484 208 530 1146 1439 
1717 1842 2021 2219 2330 2279 2059 1758 1495 
1302 1207 1135 1111 1114 1101 1117 1094 1089 
1093 1109 1111 1142 1101 873 956 1063 1079 
1491 1798 1836 2014 1965 1526 1073 1167 799 
325 199 506 846 789 945 1268 1740 2096 
2317 2483 2429 2364 2170 1949 1736 1537 1366 
1296 1212 1150 1099 1084 1082 1076 1121 1115 
1114 931 967 1040 1172 1650 1900 1693 1668 
1774 1653 1353 1150 628 350 349 507 643 
683 1000 1154 1201 1280 1760 2313 2496 2484 
2471 2445 2354 2226 2122 1987 1789 1528 1223 
1080 1082 1101 1091 1096 1103 783 780 898 
1139 1590 1920 1871 1781 1775 1732 1749 1239 
566 527 812 1235 1480 1484 1436 920 513 
476 1110 2032 2349 2360 2451 2510 2511 2533 
2508 2471 2383 2130 1529 1136 1079 1074 1076 
1088 1073 673 673 780 1066 1422 1738 1852 
1789 1476 1314 1339 1110 862 987 1445 1952 
2095 1569 989 456 249 254 844 1893 2158 
2181 2300 2381 2455 2520 2549 2542 2477 2367 
1832 1239 1055 1019 1017 1051 1043 1073 1121 
1168 1193 1299 1530 1892 2276 2444 2377 2362 
2456 2364 2042 1600 1277 1162 1109 1129 1125 
1095 1092 1090 1091 1109 1091 1077 1087 1086 
1100 1092 1095 1086 1085 1067 1083 1075 1079 
1080 1083 1103 1127 1152 1177 1311 1524 1805 
2151 2422 2518 2348 2257 2384 2195 1737 1335 
1162 1122 1084 1115 1093 1105 1111 1073 1086 
1106 1125 1106 1088 1085 1087 1066 1064 1093 
1083 1083 1085 1085 1094 1085 1079 1090 1151 
1179 1289 1546 1853 2092 2351 2489 2528 2479 
2355 2248 1897 1439 1181 1126 1108 1091 1103 
1100 1109 1105 1083 1096 1083 1111 1108 1072 
1088 1092 1079 1096 1080 1081 1087 1087 1086 
1068 1091 1099 1086 1227 1368 1538 1855 2198 
2366 2476 2531 2561 2531 2433 2087 1574 1266 
1144 1087 1113 1119 1084 1090 1105 1103 1123 
1113 1085 1115 1088 1085 1082 1083 1098 1083 
1083 1084 1070 1085 1099 1098 1089 1108 1086 
1427 1693 1843 2071 2362 2492 2542 2567 2568 
2543 2295 1755 1347 1161 1139 1118 1106 1100 
1118 1093 1109 1105 1119 1106 1094 1084 1078 
1078 1097 1069 1092 1091 1105 1076 1072 1095 
1084 1097 1105 1098 1093 1745 2088 2246 2216 
2306 2464 2574 2584 2595 2494 2062 1515 1207 
1100 1115 1109 1104 1122 1103 1090 1107 1099 
1102 1107 1085 1094 1078 1092 1106 1086 1092 
1103 1075 1087 1076 1075 1095 1095 1081 1088 
1073 2129 2415 2510 2372 2207 2286 2474 2580 
2574 2349 1840 1343 1152 1097 1102 1098 1107 
1113 1098 1099 1091 1089 1093 1095 1081 1102 
1099 1082 1077 1101 1083 1086 1091 1083 1085 
1096 1100 1089 1097 1078 1065 2415 2557 2586 
2427 2130 2087 2292 2528 2458 2107 1598 1235 
1113 1134 1105 1104 1097 1127 1095 1103 1101 
1100 1095 1102 1102 1112 1110 1078 1089 1097 
1086 1103 1099 1089 1122 1100 1081 1093 1085 
1081 1083 2544 2577 2513 2266 2040 2056 2166 
2358 2306 1834 1387 1161 1114 1110 1103 1112 
1093 1090 1101 1074 1094 1091 1105 1080 1098 
1116 1081 1065 1092 1072 1086 1090 1086 1097 
1092 1090 1078 1084 1083 1085 1081 2562 2581 
2385 1998 1929 2173 2241 2180 2016 1573 1250 
1124 1111 1093 1108 1122 1101 1098 1100 1095 
1104 1115 1106 1083 1084 1102 1085 1101 1091 
1110 1086 1087 1093 1106 1074 1107 1086 1080 
1089 1103 1087 2581 2549 2129 1719 1806 2261 
2418 2095 1681 1353 1186 1108 1097 1082 1101 
1080 1108 1092 1093 1102 1070 1095 1110 1085 
1070 1096 1083 1090 1092 1089 1080 1100 1093 
1096 1092 1093 1072 1092 1090 1074 1078 2568 
2412 1866 1502 1785 2301 2422 1984 1500 1197 
1122 1098 1096 1103 1096 1078 1117 1101 1091 
1093 1089 1097 1096 1075 1092 1085 1099 1100 
1092 1099 1080 1074 1074 1097 1106 1081 1084 
1101 1092 1076 1072 2548 2218 1590 1457 1856 
2373 2331 1826 1347 1146 1105 1119 1093 1087 
1071 1099 1107 1088 1083 1085 1092 1100 1096 
1082 1086 1093 1095 1096 1115 1079 1086 1077 
1070 1091 1089 1072 1104 1091 1081 1091 1083 
2474 1970 1457 1469 2060 2429 2170 1681 1266 
1133 1094 1104 1095 1095 1094 1087 1082 1082 
1083 1093 1111 1084 1095 1066 1088 1088 1104 
1107 1078 1087 1058 1066 1067 1076 1064 1090 
1090 1089 1082 1063 1085 2378 1769 1350 1602 
2187 2400 2064 1564 1238 1130 1110 1108 1104 
1082 1091 1097 1082 1071 1090 1104 1101 1084 
1086 1081 1084 1087 1095 1080 1091 1083 1053 
1079 1087 1089 1078 1082 1097 1084 1070 1088 
1075 2206 1607 1371 1680 2291 2374 1962 1486 
1194 1104 1093 1088 1096 1081 1083 1074 1091 
1083 1091 1072 1065 1074 1097 1087 1077 1077 
1091 1108 1092 1078 1093 1077 1081 1078 1076 
1078 1099 1078 1085 1095 1078 1983 1486 1329 
1824 2380 2332 1930 1437 1185 1098 1085 1091 
1099 1090 1102 1084 1106 1083 1076 1071 1068 
1073 1094 1088 1061 1073 1093 1103 1084 1076 
1069 1090 1096 1086 1096 1083 1097 1094 1075 
1055 1068 1754 1319 1342 1922 2397 2329 1883 
1408 1170 1096 1084 1086 1085 1072 1095 1105 
1089 1085 1071 1071 1078 1086 1106 1092 1084 
1087 1082 1087 1073 1081 1063 1073 1088 1069 
1098 1062 1087 1093 1083 1087 1082 1464 1221 
1423 2029 2432 2246 1787 1348 1140 1097 1097 
1104 1112 1096 1068 1098 1074 1113 1085 1105 
1087 1093 1080 1073 1082 1087 1089 1088 1097 
1081 1062 1076 1091 1098 1084 1086 1098 1058 
1099 1060 1074 1310 1207 1544 2211 2419 2100 
1575 1220 1085 1098 1089 1096 1090 1095 1082 
1095 1105 1087 1091 1113 1096 1087 1079 1059 
1080 1078 1079 1091 1081 1078 1079 1074 1085 
1073 1078 1077 1080 1064 1086 1066 1080 1250 
1256 1751 2257 2134 1660 1287 1126 1089 1085 
1096 1090 1107 1078 1106 1075 1079 1065 1096 
1107 1091 1062 1080 1075 1092 1091 1062 1076 
1070 1075 1084 1083 1096 1098 1077 1070 1070 
1066 1059 1060 1077 1304 1305 1655 1812 1499 
1201 1101 1083 1064 1067 1098 1095 1098 1095 
1081 1105 1088 1096 1085 1084 1086 1097 1070 
1096 1094 1066 1078 1079 1088 1074 1074 1086 
1092 1102 1093 1063 1072 1073 1082 1076 1078 
1410 1319 1330 1267 1145 1086 1060 1077 1057 
1082 1081 1092 1085 1078 1097 1078 1078 1057 
1069 1101 1086 1088 1097 1100 1082 1079 1061 
1076 1076 1069 1089 1082 1077 1087 1083 1089 
1090 1083 1097 1087 1071 1534 1297 1146 1097 
1087 1075 1082 1074 1076 1104 1082 1102 1102 
1097 1097 1103 1075 1086 1081 1083 1105 1086 
1095 1092 1101 1088 1070 1061 1063 1068 1067 
1070 1080 1084 1064 1080 1091 1076 1089 1108 
1067 1543 1261 1131 1075 1074 1082 1067 1064 
1072 1070 1087 1083 1077 1079 1086 1082 1084 
1085 1118 1113 1112 1074 1075 1107 1103 1091 
1056 1052 1084 1090 1098 1083 1083 1094 1083 
1105 1081 1081 1073 1087 1089 1496 1211 1077 
1085 1070 1069 1056 1072 1071 1081 1089 1099 
1086 1079 1078 1085 1083 1088 1080 1095 1116 
1078 1091 1084 1078 1071 1071 1069 1082 1064 
1084 1080 1082 1081 1094 1093 1088 1078 1094 
1087 1083 1515 1270 1093 1073 1039 1040 1045 
1079 1086 1093 1060 1090 1071 1102 1094 1070 
1083 1093 1076 1086 1097 1090 1091 1107 1074 
1075 1050 1057 1070 1070 1086 1093 1097 1096 
1085 1097 1082 1109 1087 1079 1069 1648 1394 
1191 1093 1057 1015 1042 1068 1087 1088 1102 
1090 1070 1081 1075 1086 1094 1064 1089 1108 
1098 1106 1104 1075 1067 1073 1083 1064 1079 
1073 1089 1072 1094 1075 1090 1102 1092 1098 
1097 1087 1089 1426 1452 1300 1167 1095 1063 
1069 1068 1093 1073 1075 1090 1085 1071 1077 
1101 1081 1103 1097 1117 1091 1120 1115 1078 
1068 1082 1068 1076 1088 1072 1073 1090 1091 
1081 1074 1091 1099 1096 1100 1070 1069 1001 
1397 1487 1345 1231 1142 1095 1086 1076 1052 
1089 1074 1054 1055 1068 1084 1094 1075 1121 
1091 1102 1099 1098 1072 1072 1063 1065 1071 
1080 1068 1065 1076 1073 1073 1091 1086 1086 
1096 1097 1091 1097 945 1198 1558 1735 1617 
1373 1215 1147 1091 1059 1087 1093 1094 1076 
1083 1103 1110 1086 1114 1115 1120 1112 1081 
1067 1048 1067 1075 1082 1075 1091 1104 1098 
1096 1117 1096 1088 1086 1087 1073 1067 1098 
712 828 1276 1944 2098 1883 1674 1537 1446 
1385 1330 1302 1341 1360 1377 1444 1457 1384 
1236 1171 1121 1146 1118 1089 1088 1092 1055 
1074 1108 1097 1085 1080 1079 1105 1086 1080 
1081 1093 1090 1099 1111 314 510 884 1704 
2235 2159 2002 1976 1961 1989 2035 2064 2124 
2125 2128 2167 2168 2022 1790 1555 1379 1381 
1347 1236 1112 1088 1094 1104 1110 1099 1080 
1081 1083 1096 1072 1067 1074 1090 1091 1103 
1108 217 429 836 1629 2184 2148 1777 1449 
1496 1710 2126 2395 2387 2221 2139 2230 2338 
2378 2270 1979 1690 1789 1819 1576 1351 1156 
1102 1116 1106 1105 1108 1119 1097 1102 1092 
1090 1063 1101 1084 1113 1117 324 734 1071 
1509 1985 2051 1561 914 764 1124 1725 1983 
1665 1215 987 1105 1417 1791 2028 1949 1706 
1871 2134 2025 1713 1417 1210 1141 1126 1136 
1123 1099 1095 1074 1066 1073 1102 1072 1097 
1107 1122 543 909 1007 1141 1595 1593 1577 
1265 1078 1404 1572 1359 1132 680 350 310 
443 878 1511 1711 1564 1744 2163 2308 2196 
1871 1502 1275 1196 1152 1118 1111 1086 1090 
1092 1079 1075 1084 1103 1080 1087 734 940 
1017 1156 1444 1292 1422 1506 1562 1667 1257 
852 731 590 418 342 431 817 1358 1478 
1455 1631 2069 2343 2384 2279 2057 1763 1519 
1328 1177 1124 1143 1107 1085 1090 1060 1068 
1079 1094 1075 809 788 1014 1295 1541 1448 
1209 1176 1317 1533 1124 652 385 361 488 
705 908 1033 1075 1209 1439 1605 1992 2288 
2379 2382 2340 2244 2101 1884 1658 1528 1372 
1296 1130 1098 1049 1045 1058 1060 1055 809 
653 787 1141 1576 1709 1441 1358 1571 1847 
1552 771 294 215 422 786 1076 926 883 
1132 1191 1282 1801 2222 2264 2239 2240 2324 
2352 2307 2227 2157 2056 1840 1495 1153 1055 
1056 1059 1072 1071 733 606 693 1028 1471 
1822 1774 1827 1950 1865 1426 706 246 239 
396 721 1133 1116 1042 928 756 890 1543 
2141 2106 2016 2073 2197 2319 2339 2326 2382 
2382 2294 1904 1315 1075 1041 1072 1065 1057 
648 625 757 1123 1378 1523 1543 1749 1532 
1003 840 592 292 262 368 714 1311 1214 
790 536 568 779 1492 2113 1988 1862 1916 
2107 2230 2287 2289 2353 2372 2336 2082 1448 
1074 1025 1068 1035 1069 1004 1050 1076 1100 
1116 1159 1267 1508 1844 2169 2385 2466 2388 
2367 2263 1888 1443 1211 1148 1132 1113 1105 
1101 1099 1093 1110 1094 1096 1084 1088 1087 
1066 1060 1077 1072 1076 1083 1093 1078 1106 
1106 1038 1092 1093 1135 1145 1219 1397 1769 
2173 2388 2351 2407 2470 2315 1972 1552 1248 
1149 1106 1101 1093 1090 1112 1092 1088 1096 
1078 1098 1089 1069 1060 1081 1071 1054 1077 
1100 1095 1075 1100 1089 1099 1075 1128 1141 
1163 1210 1275 1554 2057 2408 2485 2336 2310 
2354 2110 1629 1303 1169 1128 1095 1120 1115 
1083 1127 1100 1100 1104 1088 1063 1072 1049 
1058 1085 1092 1079 1089 1087 1082 1084 1089 
1084 1112 1121 1151 1179 1248 1344 1420 1698 
2150 2450 2543 2443 2299 2175 1807 1381 1193 
1128 1097 1094 1102 1087 1089 1099 1092 1091 
1097 1084 1072 1077 1068 1082 1083 1070 1092 
1080 1072 1094 1065 1095 1095 1111 1122 1170 
1268 1426 1460 1571 1783 2188 2471 2565 2496 
2319 1998 1566 1251 1110 1098 1089 1079 1102 
1073 1079 1093 1073 1086 1071 1079 1062 1085 
1087 1102 1066 1091 1077 1076 1073 1093 1105 
1098 1096 1099 1218 1392 1605 1671 1580 1579 
1814 2264 2509 2570 2498 2222 1790 1369 1152 
1106 1095 1101 1095 1096 1085 1088 1106 1083 
1083 1093 1083 1091 1097 1088 1082 1072 1053 
1083 1094 1079 1099 1093 1093 1083 1088 1418 
1746 2021 1928 1561 1467 1776 2244 2539 2541 
2439 2055 1566 1229 1129 1076 1107 1089 1088 
1081 1101 1106 1079 1083 1098 1093 1096 1067 
1081 1065 1093 1069 1104 1079 1108 1097 1080 
1103 1098 1081 1081 1781 2153 2320 1943 1476 
1458 1833 2233 2467 2530 2305 1845 1357 1160 
1109 1097 1104 1078 1093 1096 1083 1085 1091 
1106 1103 1082 1074 1095 1071 1086 1095 1085 
1099 1087 1120 1099 1079 1080 1087 1079 1088 
2147 2417 2360 1807 1466 1644 2092 2258 2369 
2425 2120 1627 1249 1126 1101 1106 1096 1089 
1112 1083 1087 1101 1127 1100 1078 1099 1087 
1091 1096 1094 1090 1083 1074 1093 1098 1097 
1085 1099 1098 1071 1082 2372 2488 2248 1739 
1551 1919 2346 2338 2210 2211 1917 1456 1181 
1114 1078 1086 1100 1097 1099 1084 1073 1101 
1089 1092 1077 1087 1081 1094 1095 1082 1097 
1080 1092 1092 1114 1089 1104 1100 1090 1109 
1076 2509 2462 2160 1803 1795 2196 2534 2446 
2176 1955 1695 1337 1142 1114 1105 1110 1111 
1108 1075 1098 1070 1069 1083 1107 1114 1109 
1098 1080 1086 1083 1094 1103 1084 1088 1086 
1075 1092 1088 1095 1088 1066 2502 2438 2146 
1922 2055 2419 2605 2464 2167 1779 1463 1226 
1138 1088 1114 1095 1105 1113 1089 1082 1066 
1076 1083 1089 1119 1094 1090 1081 1076 1078 
1091 1108 1079 1099 1092 1081 1087 1092 1085 
1079 1087 2472 2386 2121 2086 2294 2522 2571 
2433 2102 1664 1315 1167 1103 1090 1097 1093 
1109 1094 1109 1110 1103 1089 1096 1098 1099 
1087 1082 1105 1069 1080 1104 1104 1078 1089 
1089 1101 1095 1068 1073 1085 1075 2454 2369 
2176 2235 2450 2549 2519 2362 1994 1567 1287 
1170 1097 1102 1101 1078 1108 1104 1093 1098 
1098 1082 1070 1081 1102 1108 1086 1091 1092 
1071 1068 1075 1087 1079 1064 1096 1097 1076 
1069 1068 1072 2423 2316 2218 2292 2489 2514 
2477 2315 1894 1477 1206 1090 1111 1088 1088 
1099 1083 1108 1106 1099 1101 1100 1100 1096 
1077 1105 1084 1096 1072 1085 1095 1092 1086 
1085 1080 1101 1091 1082 1071 1071 1082 2407 
2296 2236 2350 2470 2483 2424 2237 1813 1410 
1176 1083 1106 1104 1087 1086 1088 1112 1103 
1095 1090 1109 1076 1082 1072 1093 1081 1080 
1086 1080 1101 1093 1066 1083 1070 1075 1096 
1080 1076 1096 1077 2367 2240 2168 2295 2408 
2420 2380 2204 1788 1369 1152 1100 1111 1084 
1082 1092 1118 1105 1090 1106 1090 1097 1107 
1092 1091 1093 1064 1070 1094 1078 1106 1076 
1104 1083 1087 1077 1089 1054 1077 1085 1062 
2282 2147 2131 2309 2375 2377 2382 2194 1775 
1353 1135 1083 1083 1076 1066 1090 1104 1093 
1089 1096 1096 1093 1089 1089 1089 1083 1050 
1063 1073 1077 1073 1085 1095 1081 1094 1060 
1103 1077 1070 1070 1065 2149 1997 2041 2309 
2375 2336 2338 2108 1653 1277 1131 1094 1111 
1100 1077 1072 1089 1084 1077 1093 1097 1089 
1094 1090 1084 1073 1064 1053 1072 1086 1106 
1079 1095 1070 1106 1100 1087 1085 1073 1073 
1078 2071 1956 2013 2331 2435 2365 2209 1883 
1444 1177 1121 1116 1110 1088 1100 1082 1114 
1080 1082 1078 1081 1076 1083 1094 1099 1086 
1063 1096 1078 1108 1088 1083 1116 1082 1083 
1105 1107 1078 1069 1045 1074 2073 2072 2185 
2325 2310 2136 1863 1467 1221 1119 1098 1109 
1094 1077 1080 1096 1078 1099 1092 1080 1070 
1079 1093 1091 1088 1071 1071 1087 1087 1071 
1085 1102 1090 1078 1079 1093 1078 1078 1075 
1077 1076 2149 2199 2274 2108 1821 1570 1322 
1158 1106 1068 1091 1078 1078 1084 1076 1059 
1077 1081 1105 1074 1093 1093 1086 1083 1094 
1070 1086 1084 1071 1057 1081 1093 1082 1099 
1098 1066 1061 1082 1074 1093 1102 2189 2178 
2003 1702 1392 1213 1101 1062 1049 1061 1081 
1074 1080 1083 1086 1077 1076 1077 1088 1089 
1077 1095 1096 1078 1074 1072 1046 1072 1058 
1069 1091 1100 1073 1083 1084 1065 1086 1084 
1101 1063 1091 2284 2043 1645 1326 1166 1099 
1072 1057 1066 1061 1065 1067 1076 1076 1082 
1078 1079 1081 1083 1071 1084 1108 1094 1093 
1087 1072 1090 1057 1078 1080 1087 1087 1074 
1093 1084 1069 1089 1099 1080 1079 1095 2244 
1915 1473 1194 1092 1062 1053 1046 1058 1068 
1072 1103 1077 1092 1093 1075 1092 1083 1100 
1095 1075 1086 1094 1094 1068 1070 1083 1096 
1073 1086 1084 1087 1078 1069 1074 1072 1071 
1097 1103 1080 1104 2185 1848 1453 1164 1067 
1050 1064 1064 1054 1064 1060 1075 1080 1088 
1073 1085 1069 1089 1087 1106 1092 1095 1065 
1059 1064 1076 1073 1091 1053 1057 1086 1065 
1073 1057 1080 1081 1082 1096 1089 1088 1100 
1954 1683 1460 1216 1054 1023 1071 1055 1047 
1064 1068 1096 1072 1087 1087 1065 1091 1076 
1082 1093 1095 1057 1064 1042 1057 1062 1054 
1055 1075 1086 1076 1077 1090 1078 1079 1074 
1098 1112 1073 1123 1087 1442 1209 1282 1333 
1169 1071 1041 1046 1070 1042 1046 1080 1099 
1068 1085 1098 1092 1080 1085 1082 1089 1081 
1068 1062 1056 1068 1071 1066 1086 1092 1066 
1073 1086 1073 1093 1087 1116 1107 1101 1106 
1084 902 756 994 1362 1368 1190 1116 1036 
1032 1054 1063 1047 1054 1082 1097 1077 1089 
1071 1090 1102 1098 1083 1071 1065 1073 1088 
1065 1062 1083 1078 1064 1076 1076 1101 1098 
1092 1102 1103 1102 1094 1090 920 674 913 
1544 1698 1465 1255 1124 1067 1057 1080 1068 
1055 1039 1066 1044 1067 1080 1104 1115 1103 
1101 1081 1071 1053 1071 1083 1058 1088 1071 
1059 1066 1078 1096 1112 1094 1105 1094 1095 
1079 1097 916 763 1028 1603 2020 1844 1599 
1402 1201 1125 1086 1064 1035 1019 1052 1061 
1087 1081 1073 1089 1115 1127 1090 1087 1058 
1069 1063 1067 1098 1079 1064 1096 1109 1101 
1114 1082 1103 1116 1107 1090 1101 513 551 
871 1461 1966 1698 1556 1612 1599 1516 1383 
1322 1278 1305 1349 1452 1467 1428 1332 1295 
1312 1390 1385 1284 1169 1080 1075 1085 1090 
1077 1083 1089 1088 1094 1092 1097 1093 1118 
1102 1087 1115 345 371 674 1433 1522 928 
815 999 1371 1662 1945 2007 2085 2100 2155 
2208 2185 2112 1964 1906 1954 2060 2020 1830 
1513 1234 1106 1062 1067 1102 1086 1092 1090 
1085 1083 1097 1112 1124 1114 1102 1111 229 
311 707 1428 1249 663 401 351 504 837 
1596 2209 2281 2172 2247 2224 2227 2175 2058 
2008 2175 2325 2350 2188 1916 1564 1261 1119 
1088 1104 1115 1099 1109 1084 1070 1083 1094 
1095 1122 1138 1137 170 331 678 1270 1379 
1106 849 414 234 401 1118 1570 1386 1201 
1154 1369 1710 1772 1715 1711 1920 2190 2344 
2297 2191 1961 1580 1215 1111 1081 1107 1092 
1085 1102 1100 1095 1099 1094 1100 1112 1108 
409 747 930 1201 1525 1553 1668 1182 658 
698 1164 1123 836 705 481 674 1214 1451 
1536 1509 1605 1871 2195 2335 2349 2203 1865 
1465 1228 1123 1089 1077 1096 1079 1088 1087 
1055 1045 1057 1087 1103 651 852 827 1052 
1279 1309 1741 1640 1382 1432 1341 1015 806 
841 728 757 1114 1373 1490 1475 1458 1633 
2030 2287 2300 2106 1825 1652 1472 1340 1192 
1098 1099 1064 1054 1061 1038 1055 1037 1076 
1068 663 551 656 1038 1183 1061 1325 1457 
1677 1843 1423 762 478 536 720 1012 1327 
1446 1433 1435 1485 1617 1981 2248 2122 1799 
1587 1586 1645 1590 1438 1318 1277 1215 1127 
1070 1045 1066 1027 1034 1088 757 553 777 
1323 1518 1369 1462 1629 1927 1823 1210 497 
227 213 318 660 1213 1372 1407 1472 1463 
1630 2004 2137 1817 1426 1384 1456 1534 1523 
1504 1521 1523 1489 1343 1159 1067 1085 1086 
1073 1181 843 686 806 1159 1429 1519 1537 
1763 1930 1556 844 289 177 220 205 378 
914 1311 1463 1448 1421 1706 2089 2028 1538 
1264 1266 1342 1422 1422 1424 1443 1521 1584 
1517 1240 1087 1059 1085 1138 1395 895 906 
922 964 1055 1119 1196 1507 1363 1062 831 
352 197 197 177 403 1018 1362 1388 1334 
1454 1863 2108 1804 1331 1174 1176 1246 1344 
1373 1356 1407 1494 1592 1582 1318 1126 1085 
1109 1202 1597 985 994 1030 1032 1088 1085 
1114 1135 1235 1525 1924 2290 2416 2393 2452 
2436 2152 1749 1447 1265 1171 1102 1115 1110 
1106 1090 1103 1083 1082 1074 1076 1088 1069 
1084 1081 1107 1074 1084 1073 1075 1089 991 
1054 1067 1085 1112 1138 1127 1227 1494 1884 
2242 2404 2457 2385 2374 2244 1883 1474 1245 
1158 1125 1096 1091 1119 1102 1093 1086 1102 
1087 1065 1075 1068 1077 1088 1075 1073 1068 
1088 1096 1076 1075 1050 1072 1078 1117 1116 
1128 1157 1389 1810 2187 2391 2382 2445 2441 
2286 1973 1595 1272 1149 1117 1116 1094 1095 
1097 1078 1073 1103 1088 1072 1081 1048 1095 
1073 1089 1089 1086 1062 1091 1081 1082 1115 
1070 1097 1117 1125 1135 1115 1179 1535 2118 
2410 2441 2281 2277 2378 2126 1694 1335 1183 
1111 1097 1095 1080 1103 1099 1067 1100 1078 
1070 1087 1075 1077 1064 1072 1091 1065 1076 
1081 1082 1103 1104 1133 1080 1110 1137 1135 
1101 1115 1195 1612 2260 2497 2482 2261 2190 
2217 1911 1484 1206 1114 1108 1091 1105 1086 
1119 1090 1094 1076 1074 1085 1070 1079 1074 
1087 1089 1074 1113 1090 1107 1087 1117 1123 
1107 1100 1126 1171 1149 1111 1139 1209 1681 
2277 2505 2517 2404 2243 2030 1645 1322 1141 
1083 1075 1093 1111 1081 1092 1081 1091 1088 
1097 1111 1078 1072 1091 1076 1084 1070 1106 
1104 1110 1085 1096 1088 1089 1119 1238 1347 
1381 1327 1366 1549 1925 2252 2470 2546 2512 
2275 1850 1466 1205 1116 1097 1068 1089 1106 
1081 1090 1093 1089 1084 1086 1082 1075 1066 
1088 1061 1115 1088 1112 1105 1086 1076 1108 
1098 1100 1262 1493 1732 1831 1824 1903 2139 
2264 2249 2429 2542 2467 2142 1625 1287 1140 
1096 1095 1076 1083 1090 1108 1087 1088 1083 
1082 1071 1097 1077 1098 1083 1095 1113 1111 
1124 1097 1084 1103 1059 1091 1102 1538 1886 
2139 2205 2219 2319 2461 2438 2283 2369 2527 
2365 1928 1483 1205 1123 1120 1095 1116 1093 
1071 1092 1104 1084 1075 1071 1070 1085 1100 
1106 1106 1107 1101 1094 1086 1106 1083 1088 
1100 1090 1101 1935 2220 2381 2406 2370 2452 
2506 2533 2364 2271 2381 2231 1757 1366 1175 
1117 1108 1092 1103 1093 1085 1093 1078 1087 
1086 1081 1099 1088 1105 1103 1081 1083 1097 
1091 1085 1098 1120 1103 1104 1102 1085 2305 
2452 2492 2485 2477 2493 2544 2587 2440 2228 
2212 2054 1622 1294 1148 1114 1105 1087 1099 
1075 1080 1086 1098 1097 1083 1085 1097 1090 
1091 1096 1108 1097 1089 1098 1086 1086 1099 
1093 1105 1101 1068 2470 2472 2485 2468 2513 
2527 2531 2560 2521 2315 2102 1897 1514 1234 
1145 1125 1120 1121 1098 1069 1075 1092 1091 
1089 1097 1076 1110 1099 1069 1080 1106 1110 
1091 1097 1107 1101 1093 1096 1095 1082 1102 
2446 2426 2415 2463 2519 2508 2480 2524 2542 
2370 1988 1711 1427 1191 1135 1125 1096 1100 
1095 1090 1092 1090 1107 1093 1094 1086 1101 
1100 1093 1090 1109 1092 1085 1106 1109 1090 
1088 1101 1098 1071 1085 2364 2335 2344 2338 
2398 2412 2398 2481 2510 2325 1930 1555 1341 
1176 1126 1115 1112 1104 1098 1112 1122 1086 
1097 1075 1077 1099 1098 1095 1092 1099 1112 
1089 1099 1115 1090 1077 1095 1096 1089 1096 
1076 2220 2241 2253 2236 2257 2310 2338 2410 
2473 2265 1837 1438 1255 1130 1120 1125 1104 
1093 1104 1094 1089 1079 1074 1077 1097 1092 
1073 1058 1114 1092 1106 1100 1085 1091 1085 
1094 1086 1090 1083 1082 1093 2028 2109 2213 
2197 2174 2192 2289 2374 2396 2181 1748 1357 
1179 1107 1094 1096 1092 1107 1086 1095 1090 
1089 1111 1084 1107 1100 1077 1099 1106 1083 
1096 1110 1077 1093 1090 1102 1090 1096 1076 
1076 1093 1875 1978 2058 2084 2058 2139 2246 
2340 2336 2094 1647 1322 1136 1095 1083 1103 
1094 1101 1094 1104 1107 1079 1100 1085 1081 
1073 1072 1101 1111 1091 1082 1084 1103 1095 
1115 1090 1084 1114 1076 1086 1073 1888 1956 
2038 2031 2059 2165 2218 2264 2267 2036 1653 
1305 1142 1094 1106 1102 1094 1076 1095 1092 
1096 1090 1097 1089 1077 1080 1084 1096 1099 
1072 1079 1096 1093 1101 1089 1073 1081 1087 
1086 1082 1082 1969 2095 2116 2070 2080 2143 
2233 2250 2219 1948 1601 1286 1150 1097 1064 
1086 1079 1084 1099 1111 1081 1087 1091 1075 
1086 1089 1073 1069 1065 1073 1080 1103 1092 
1086 1056 1089 1119 1072 1070 1070 1072 2013 
2121 2119 2125 2149 2215 2301 2267 2081 1808 
1479 1244 1139 1124 1099 1088 1086 1095 1093 
1103 1082 1085 1104 1097 1075 1077 1089 1083 
1091 1076 1088 1083 1101 1081 1097 1094 1095 
1074 1079 1068 1086 1945 2055 2081 2155 2263 