# vtk DataFile Version 4.2
vtk output
ASCII
DATASET STRUCTURED_POINTS
DIMENSIONS 101 101 1
SPACING 0.001 0.001 0.001
ORIGIN 0 0 0
POINT_DATA 10201
VECTORS vectors float
0 0 0 0 0 0 0 0 0 
0 0 0 0 0 0 0 0 0 
0 0 0 0 0 0 0 0 0 
0 0 0 0 0 0 0 0 0 
0 0 0 0 0 0 0 0 0 
0 0 0 0 0 0 0 0 0 
0 0 0 0 0 0 0 0 0 
0 0 0 0 0 0 0 0 0 
0 0 0 0 0 0 0 0 0 
0 0 0 0 0 0 0 0 0 
0 0 0 0 0 0 0 0 0 
0 0 0 0 0 0 0 0 0 
0 0 0 0 0 0 0 0 0 
0 0 0 0 0 0 0 0 0 
0 0 0 0 0 0 0 0 0 
0 0 0 0 0 0 0 0 0 
0 0 0 0 0 0 0 0 0 
0 0 0 0 0 0 0 0 0 
0 0 0 0 0 0 0 0 0 
0 0 0 0 0 0 0 0 0 
0 0 0 0 0 0 0 0 0 
0 0 0 0 0 0 0 0 0 
0 0 0 0 0 0 0 0 0 
0 0 0 0 0 0 0 0 0 
0 0 0 0 0 0 0 0 0 
0 0 0 0 0 0 0 0 0 
0 0 0 0 0 0 0 0 0 
0 0 0 0 0 0 0 0 0 
0 0 0 0 0 0 0 0 0 
0 0 0 0 0 0 0 0 0 
0 0 0 0 0 0 0 0 0 
0 0 0 0 0 0 0 0 0 
0 0 0 0 0 0 0 0 0 
0 0 0 0 0 0 0 0 0 
-0.000829 0.001197 0 -0.001713 0.001194 0 -0.002368 0.000877 0 
-0.002591 0.000489 0 -0.002367 0.000177 0 -0.001836 1e-05 0 
-0.0012 1e-06 0 -0.000654 0.000124 0 -0.00034 0.000327 0 
-0.000336 0.000551 0 -0.000648 0.000748 0 -0.001226 0.000887 0 
-0.001984 0.000954 0 -0.002819 0.000948 0 -0.003632 0.000881 0 
-0.004333 0.000765 0 -0.004857 0.000618 0 -0.005157 0.000451 0 
-0.005208 0.000279 0 -0.005004 0.000112 0 -0.004558 -4.3e-05 0 
-0.003877 -0.000179 0 -0.003001 -0.00029 0 -0.001962 -0.000375 0 
-0.000796 -0.000434 0 0.000462 -0.000472 0 0.001778 -0.00049 0 
0.003125 -0.000491 0 0.004479 -0.000479 0 0.005822 -0.000458 0 
0.007142 -0.000432 0 0.00843 -0.000405 0 0.009681 -0.000377 0 
0.01089 -0.000349 0 0.012049 -0.000317 0 0.013148 -0.000279 0 
0.014168 -0.000228 0 0.015082 -0.000157 0 0.015842 -5.4e-05 0 
0.016389 9e-05 0 0.016647 0.000275 0 0.016536 0.000499 0 
0.015975 0.000761 0 0.014895 0.001045 0 0.013254 0.001334 0 
0.011037 0.001626 0 0.008271 0.00193 0 0.005091 0.002167 0 
0.001907 0.001939 0 0 0 0 0 0 0 
0 0 0 0 0 0 0 0 0 
0 0 0 0 0 0 0 0 0 
0 0 0 0 0 0 -0 0 0 
-0.000475 0.000529 0 -0.00156 0.000446 0 -0.002588 0.000236 0 
-0.003563 0.000191 0 -0.004674 0.000353 0 -0.006107 0.000646 0 
-0.007965 0.000993 0 -0.010274 0.001354 0 -0.013017 0.001714 0 
-0.016154 0.002064 0 -0.019628 0.002389 0 -0.023357 0.002669 0 
-0.027237 0.002889 0 -0.031155 0.003034 0 -0.034986 0.003089 0 
-0.038596 0.003046 0 -0.041856 0.002908 0 -0.044654 0.002686 0 
-0.046889 0.002375 0 -0.048452 0.001946 0 -0.049221 0.00144 0 
-0.049102 0.000936 0 -0.048027 0.000298 0 -0.045937 -0.000411 0 
-0.042823 -0.00123 0 -0.038713 -0.002108 0 -0.033593 -0.002983 0 
-0.027537 -0.003783 0 -0.020637 -0.0044 0 -0.013282 -0.004703 0 
-0.005849 -0.004562 0 0.001156 -0.003892 0 0.007107 -0.002706 0 
0.011368 -0.00114 0 0.013477 0.000559 0 0.01305 0.002126 0 
0.010684 0.003306 0 0.006835 0.003839 0 0.002756 0.003345 0 
0 0 0 0 0 0 -0.000813 0.001823 0 
-0.001508 0.001666 0 -0.001876 0.000908 0 -0.001782 2.4e-05 0 
-0.001281 -0.000669 0 -0.000558 -0.001012 0 0.000166 -0.000979 0 
0.000697 -0.000633 0 0.0009 -9.3e-05 0 0.000713 0.000506 0 
0.000145 0.00105 0 -0.000737 0.001453 0 -0.001823 0.001672 0 
-0.00298 0.001698 0 -0.004078 0.001548 0 -0.005004 0.001256 0 
-0.005672 0.000863 0 -0.006023 0.000408 0 -0.006029 -7.2e-05 0 
-0.005686 -0.000548 0 -0.005008 -0.000994 0 -0.004024 -0.001392 0 
-0.002777 -0.001729 0 -0.00131 -0.001999 0 0.000327 -0.002201 0 
0.002091 -0.002339 0 0.00394 -0.002419 0 0.005841 -0.002451 0 
0.007761 -0.002444 0 0.009678 -0.002409 0 0.011576 -0.002356 0 
0.013442 -0.002293 0 0.015268 -0.002222 0 0.017046 -0.002142 0 
0.018767 -0.002049 0 0.020415 -0.001931 0 0.021973 -0.001773 0 
0.023393 -0.001552 0 0.024619 -0.001237 0 0.025576 -0.0008 0 
0.026163 -0.000222 0 0.026252 0.000511 0 0.025694 0.001404 0 
0.024334 0.00243 0 0.022039 0.003533 0 0.018726 0.004655 0 
0.014392 0.005728 0 0.009213 0.006493 0 0.003777 0.005986 0 
0 0 0 0 0 0 0 0 0 
0 0 0 0 0 0 0 0 0 
0 0 0 0 0 0 0 0 0 
0 0 0 -0 0 0 -0.001435 0.002196 0 
-0.003935 0.002306 0 -0.006528 0.002038 0 -0.009188 0.002083 0 
-0.012097 0.002544 0 -0.015432 0.00326 0 -0.019263 0.00406 0 
-0.023571 0.004841 0 -0.028276 0.005553 0 -0.033262 0.00616 0 
-0.03839 0.006626 0 -0.043506 0.006913 0 -0.04845 0.007001 0 
-0.053067 0.006878 0 -0.057213 0.00653 0 -0.060748 0.005954 0 
-0.06355 0.005175 0 -0.065518 0.004224 0 -0.066606 0.003118 0 
-0.066774 0.001842 0 -0.06605 0.000414 0 -0.064461 -0.00113 0 
-0.061894 -0.002792 0 -0.058175 -0.004537 0 -0.053535 -0.006348 0 
-0.048127 -0.008186 0 -0.04191 -0.009982 0 -0.034954 -0.011606 0 
-0.027373 -0.012864 0 -0.019365 -0.013509 0 -0.011232 -0.013267 0 
-0.003408 -0.011894 0 0.003561 -0.009304 0 0.009025 -0.005696 0 
0.012406 -0.00152 0 0.013057 0.002579 0 0.011406 0.005893 0 
0.007702 0.007708 0 0.003247 0.007057 0 0 0 0 
0 0 0 -0.00044 0.002312 0 -0.000601 0.001901 0 
-0.000429 0.000731 0 7.6e-05 -0.000537 0 0.000774 -0.001458 0 
0.001466 -0.001824 0 0.00197 -0.001617 0 0.002151 -0.00096 0 
0.001945 -3.1e-05 0 0.001345 0.000963 0 0.000391 0.001847 0 
-0.000826 0.002493 0 -0.002185 0.002827 0 -0.00355 0.002834 0 
-0.004788 0.002542 0 -0.005788 0.002007 0 -0.006464 0.001298 0 
-0.006763 0.000483 0 -0.006663 -0.000375 0 -0.006164 -0.001222 0 
-0.005289 -0.002015 0 -0.004075 -0.002721 0 -0.002569 -0.00332 0 
-0.000824 -0.003801 0 0.001104 -0.004163 0 0.003166 -0.004411 0 
0.005317 -0.004558 0 0.007518 -0.00462 0 0.009736 -0.004616 0 
0.011947 -0.004564 0 0.014134 -0.00448 0 0.016285 -0.004375 0 
0.018392 -0.004255 0 0.020448 -0.00412 0 0.022445 -0.003961 0 
0.024372 -0.003759 0 0.026217 -0.003488 0 0.027904 -0.003108 0 
0.029416 -0.002571 0 0.03068 -0.001825 0 0.031594 -0.000817 0 
0.031989 0.000502 0 0.031682 0.002166 0 0.030449 0.004156 0 
0.028056 0.006385 0 0.024306 0.008719 0 0.019096 0.010972 0 
0.012545 0.012636 0 0.005322 0.01202 0 0 0 0 
0 0 0 0 0 0 0 0 0 
0 0 0 0 0 0 0 0 0 
0 0 0 0 0 0 0 0 0 
-0 0 0 -0.002327 0.005089 0 -0.006197 0.005601 0 
-0.010292 0.005388 0 -0.014519 0.005618 0 -0.019011 0.006437 0 
-0.023875 0.007586 0 -0.029117 0.008799 0 -0.034653 0.009908 0 
-0.040355 0.010816 0 -0.046069 0.011458 0 -0.051544 0.011787 0 
-0.056593 0.011778 0 -0.061106 0.01143 0 -0.064972 0.010748 0 
-0.068104 0.00974 0 -0.070431 0.008418 0 -0.071925 0.006833 0 
-0.072615 0.005036 0 -0.072623 0.003045 0 -0.071494 0.000884 0 
-0.069644 -0.001418 0 -0.066994 -0.003846 0 -0.0636 -0.00637 0 
-0.059525 -0.008931 0 -0.054825 -0.011491 0 -0.049536 -0.014033 0 
-0.043701 -0.016491 0 -0.037373 -0.018722 0 -0.030599 -0.020496 0 
-0.023467 -0.021483 0 -0.016148 -0.021272 0 -0.008944 -0.019446 0 
-0.002294 -0.015777 0 0.003257 -0.010429 0 0.007152 -0.003994 0 
0.008914 0.002556 0 0.008339 0.008066 0 0.00581 0.011281 0 
0.002363 0.010627 0 0 0 0 0 0 0 
4.2e-05 0.002355 0 0.000517 0.001632 0 0.001252 0.000171 0 
0.002092 -0.001244 0 0.002822 -0.002123 0 0.003244 -0.002265 0 
0.003261 -0.001724 0 0.002845 -0.00066 0 0.002006 0.000673 0 
0.000811 0.002022 0 -0.000645 0.003172 0 -0.00225 0.003966 0 
-0.003875 0.004317 0 -0.005392 0.004213 0 -0.006684 0.003695 0 
-0.007654 0.002842 0 -0.008234 0.00175 0 -0.008383 0.000518 0 
-0.00809 -0.000766 0 -0.007366 -0.002023 0 -0.006239 -0.003192 0 
-0.004758 -0.004228 0 -0.002978 -0.005101 0 -0.000965 -0.005796 0 
0.00122 -0.006312 0 0.003519 -0.006661 0 0.005883 -0.006863 0 
0.008272 -0.006944 0 0.010654 -0.006931 0 0.013007 -0.00685 0 
0.015316 -0.006726 0 0.017574 -0.006572 0 0.019777 -0.006399 0 
0.02192 -0.006205 0 0.023998 -0.00598 0 0.026003 -0.005698 0 
0.027923 -0.005322 0 0.029731 -0.0048 0 0.031386 -0.004067 0 
0.032828 -0.003042 0 0.033985 -0.001628 0 0.034631 0.000271 0 
0.034643 0.002734 0 0.033766 0.005789 0 0.031687 0.009362 0 
0.028002 0.013256 0 0.022493 0.017137 0 0.015139 0.020171 0 
0.006591 0.019749 0 0 0 0 0 0 0 
0 0 0 0 0 0 0 0 0 
0 0 0 0 0 0 0 0 0 
0 0 0 0 0 0 -0 0 0 
-0.002978 0.009096 0 -0.007924 0.01021 0 -0.013176 0.010123 0 
-0.018546 0.010536 0 -0.024078 0.011636 0 -0.029797 0.013067 0 
-0.035633 0.014479 0 -0.041448 0.015648 0 -0.047075 0.016446 0 
-0.052341 0.016803 0 -0.057086 0.01669 0 -0.061234 0.016115 0 
-0.064723 0.015101 0 -0.067492 0.013689 0 -0.0695 0.01192 0 
-0.070649 0.009838 0 -0.071266 0.007485 0 -0.071164 0.004893 0 
-0.070255 0.002095 0 -0.068635 -0.000836 0 -0.066372 -0.00385 0 
-0.063496 -0.006937 0 -0.060078 -0.010056 0 -0.056185 -0.013159 0 
-0.051872 -0.016213 0 -0.047202 -0.019194 0 -0.042233 -0.022045 0 
-0.037006 -0.024643 0 -0.031535 -0.026764 0 -0.025825 -0.028045 0 
-0.01992 -0.027967 0 -0.013968 -0.025945 0 -0.008271 -0.021568 0 
-0.003245 -0.014946 0 0.000651 -0.006734 0 0.003 0.001858 0 
0.003588 0.009254 0 0.002625 0.013686 0 0.000872 0.01304 0 
0 0 0 0 0 0 0.000461 0.001834 0 
0.001462 0.000768 0 0.002589 -0.000787 0 0.003542 -0.002039 0 
0.004048 -0.002549 0 0.003981 -0.002219 0 0.003327 -0.001169 0 
0.002128 0.000367 0 0.000516 0.002081 0 -0.001364 0.003695 0 
-0.003372 0.00498 0 -0.00537 0.005776 0 -0.00723 0.006005 0 
-0.008836 0.005664 0 -0.010092 0.004813 0 -0.010921 0.003555 0 
-0.011275 0.002011 0 -0.01113 0.000306 0 -0.010492 -0.001444 0 
-0.009387 -0.003139 0 -0.007861 -0.004698 0 -0.005981 -0.006061 0 
-0.003824 -0.007192 0 -0.001467 -0.008074 0 0.001014 -0.008711 0 
0.003556 -0.009123 0 0.006108 -0.00934 0 0.008631 -0.009402 0 
0.011099 -0.009347 0 0.013499 -0.009211 0 0.015822 -0.009023 0 
0.018069 -0.008805 0 0.020242 -0.008566 0 0.022342 -0.008305 0 
0.024369 -0.008009 0 0.026321 -0.007649 0 0.02819 -0.007179 0 
0.029961 -0.006539 0 0.031607 -0.005646 0 0.033081 -0.004392 0 
0.034316 -0.002639 0 0.035193 -0.00024 0 0.03553 0.002948 0 
0.03505 0.007036 0 0.033483 0.012024 0 0.030229 0.017717 0 
0.024904 0.023638 0 0.017245 0.028571 0 0.007767 0.028795 0 
0 0 0 0 0 0 0 0 0 
0 0 0 0 0 0 0 0 0 
0 0 0 0 0 0 0 0 0 
0 0 0 -0 0 0 -0.003245 0.013825 0 
-0.00879 0.015704 0 -0.014676 0.015757 0 -0.020607 0.016256 0 
-0.026536 0.017451 0 -0.032418 0.018914 0 -0.038144 0.020234 0 
-0.043573 0.021158 0 -0.048563 0.021558 0 -0.053005 0.021391 0 
-0.056822 0.020667 0 -0.05998 0.019426 0 -0.062414 0.017718 0 
-0.064313 0.015598 0 -0.065518 0.013134 0 -0.066114 0.010387 0 
-0.066081 0.00738 0 -0.065441 0.004134 0 -0.064263 0.000715 0 
-0.062571 -0.002806 0 -0.060359 -0.006384 0 -0.05765 -0.009984 0 
-0.054494 -0.013552 0 -0.050959 -0.017037 0 -0.047127 -0.020398 0 
-0.043094 -0.023605 0 -0.038956 -0.026616 0 -0.034782 -0.029344 0 
-0.030593 -0.031609 0 -0.026356 -0.033067 0 -0.022014 -0.033159 0 
-0.017554 -0.031161 0 -0.013095 -0.026442 0 -0.008898 -0.019033 0 
-0.0053 -0.009607 0 -0.002639 0.000417 0 -0.001096 0.009122 0 
-0.000546 0.014207 0 -0.000535 0.013565 0 0 0 0 
0 0 0 0.000733 0.000852 0 0.002006 -0.00051 0 
0.003216 -0.001915 0 0.003978 -0.002672 0 0.004001 -0.002514 0 
0.003218 -0.001489 0 0.001696 0.0002 0 -0.000381 0.002215 0 
-0.002796 0.004231 0 -0.005352 0.005971 0 -0.007867 0.007222 0 
-0.010186 0.007845 0 -0.012182 0.007782 0 -0.013752 0.007052 0 
-0.014816 0.005738 0 -0.015321 0.003965 0 -0.015241 0.001882 0 
-0.01458 -0.00036 0 -0.013368 -0.002617 0 -0.011664 -0.004765 0 
-0.009549 -0.006703 0 -0.007122 -0.008359 0 -0.004484 -0.009693 0 
-0.00173 -0.010694 0 0.001061 -0.011377 0 0.003823 -0.011777 0 
0.00651 -0.011942 0 0.009094 -0.011925 0 0.011562 -0.011777 0 
0.013912 -0.011545 0 0.01615 -0.011265 0 0.018285 -0.01096 0 
0.020329 -0.01064 0 0.022292 -0.010304 0 0.024177 -0.009933 0 
0.025988 -0.009496 0 0.027721 -0.008941 0 0.029367 -0.0082 0 
0.030911 -0.007179 0 0.032325 -0.00575 0 0.033564 -0.003747 0 
0.034555 -0.000968 0 0.035143 0.00281 0 0.035064 0.007793 0 
0.034114 0.01412 0 0.031567 0.021694 0 0.026838 0.029976 0 
0.019321 0.037387 0 0.009213 0.038944 0 0 0 0 
0 0 0 0 0 0 0 0 0 
0 0 0 0 0 0 0 0 0 
0 0 0 0 0 0 0 0 0 
-0 0 0 -0.003034 0.018762 0 -0.008589 0.021526 0 
-0.014515 0.021711 0 -0.02042 0.022162 0 -0.026172 0.023247 0 
-0.031682 0.024507 0 -0.036842 0.025502 0 -0.04154 0.025976 0 
-0.045687 0.025827 0 -0.049235 0.025048 0 -0.052167 0.023688 0 
-0.0545 0.021816 0 -0.05627 0.019502 0 -0.057489 0.016808 0 
-0.058243 0.013795 0 -0.058544 0.010516 0 -0.058402 0.006995 0 
-0.057833 0.003264 0 -0.056839 -0.00063 0 -0.055397 -0.004634 0 
-0.053492 -0.008694 0 -0.051129 -0.012747 0 -0.048343 -0.016713 0 
-0.045199 -0.020517 0 -0.041798 -0.024091 0 -0.038269 -0.02739 0 
-0.034753 -0.030379 0 -0.031373 -0.033015 0 -0.028199 -0.035183 0 
-0.025213 -0.03662 0 -0.022303 -0.036812 0 -0.019315 -0.034973 0 
-0.016157 -0.030246 0 -0.012902 -0.022546 0 -0.009744 -0.012502 0 
-0.006946 -0.001684 0 -0.004671 0.007717 0 -0.002907 0.013153 0 
-0.001495 0.012575 0 0 0 0 0 0 0 
0.00083 -0.000331 0 0.002038 -0.001845 0 0.00295 -0.002818 0 
0.003126 -0.002797 0 0.002362 -0.001745 0 0.000658 0.000137 0 
-0.001796 0.002474 0 -0.004732 0.004894 0 -0.007878 0.007076 0 
-0.01099 0.008769 0 -0.013863 0.009794 0 -0.016333 0.010045 0 
-0.018268 0.009498 0 -0.019577 0.0082 0 -0.020199 0.006265 0 
-0.020111 0.003847 0 -0.019324 0.001126 0 -0.017886 -0.001712 0 
-0.015875 -0.004492 0 -0.013403 -0.007066 0 -0.0106 -0.009319 0 
-0.007593 -0.011177 0 -0.004497 -0.01261 0 -0.001408 -0.01362 0 
0.0016 -0.014244 0 0.004475 -0.014537 0 0.007183 -0.014567 0 
0.009714 -0.014404 0 0.01207 -0.014113 0 0.014267 -0.013748 0 
0.016325 -0.013349 0 0.018266 -0.012942 0 0.020112 -0.012536 0 
0.021879 -0.012123 0 0.023577 -0.011682 0 0.025211 -0.011174 0 
0.02678 -0.010546 0 0.028279 -0.009722 0 0.029699 -0.008602 0 
0.031026 -0.007049 0 0.032237 -0.004877 0 0.033293 -0.001844 0 
0.034109 0.00235 0 0.034505 0.008024 0 0.034152 0.015483 0 
0.032599 0.024833 0 0.028914 0.035657 0 0.022061 0.046183 0 
0.011586 0.05023 0 0 0 0 0 0 0 
0 0 0 0 0 0 0 0 0 
0 0 0 0 0 0 0 0 0 
0 0 0 0 0 0 -0 0 0 
-0.00234 0.02332 0 -0.007242 0.027077 0 -0.012619 0.027426 0 
-0.017994 0.027738 0 -0.023149 0.028565 0 -0.027964 0.029474 0 
-0.032346 0.030022 0 -0.036223 0.029969 0 -0.039551 0.029248 0 
-0.042327 0.027888 0 -0.044576 0.025968 0 -0.046347 0.023577 0 
-0.047694 0.020792 0 -0.048671 0.017678 0 -0.04933 0.014281 0 
-0.049689 0.010631 0 -0.049747 0.006743 0 -0.049485 0.002636 0 
-0.048862 -0.00166 0 -0.047836 -0.006098 0 -0.046373 -0.010612 0 
-0.04446 -0.01511 0 -0.042113 -0.019481 0 -0.039387 -0.023606 0 
-0.036383 -0.027378 0 -0.033249 -0.030718 0 -0.030163 -0.033584 0 
-0.027305 -0.035958 0 -0.024813 -0.037803 0 -0.022727 -0.038976 0 
-0.020945 -0.039089 0 -0.019223 -0.037376 0 -0.017273 -0.032935 0 
-0.014975 -0.025397 0 -0.01233 -0.015301 0 -0.009542 -0.004275 0 
-0.006802 0.005321 0 -0.00423 0.010952 0 -0.001922 0.010555 0 
0 0 0 0 0 0 0.00074 -0.001405 0 
0.001516 -0.002807 0 0.001724 -0.003081 0 0.000991 -0.002066 0 
-0.000807 2.5e-05 0 -0.003536 0.002748 0 -0.006914 0.005641 0 
-0.010615 0.008316 0 -0.014329 0.010478 0 -0.017789 0.011916 0 
-0.020776 0.012494 0 -0.023118 0.012148 0 -0.024691 0.010897 0 
-0.025422 0.008834 0 -0.02529 0.006113 0 -0.024323 0.002931 0 
-0.022604 -0.000488 0 -0.020238 -0.00392 0 -0.017378 -0.007165 0 
-0.014186 -0.010061 0 -0.010812 -0.0125 0 -0.007387 -0.014423 0 
-0.004013 -0.015819 0 -0.00077 -0.016717 0 0.002286 -0.017174 0 
0.005119 -0.01727 0 0.007714 -0.017093 0 0.010075 -0.016729 0 
0.012222 -0.016255 0 0.014186 -0.015733 0 0.016003 -0.015207 0 
0.017706 -0.014699 0 0.019328 -0.014214 0 0.02089 -0.013739 0 
0.022408 -0.013245 0 0.023888 -0.012686 0 0.025329 -0.012003 0 
0.026726 -0.011118 0 0.02807 -0.009928 0 0.029355 -0.008294 0 
0.030575 -0.006024 0 0.031722 -0.002854 0 0.032769 0.001569 0 
0.033631 0.007676 0 0.034097 0.015942 0 0.033752 0.026744 0 
0.031725 0.040023 0 0.026423 0.054317 0 0.016072 0.063016 0 
0 0 0 0 0 0 0 0 0 
0 0 0 0 0 0 0 0 0 
0 0 0 0 0 0 0 0 0 
0 0 0 -0 0 0 -0.001301 0.026549 0 
-0.004827 0.031699 0 -0.009054 0.032399 0 -0.013498 0.032605 0 
-0.017813 0.033135 0 -0.021807 0.033653 0 -0.025388 0.033743 0 
-0.028514 0.033191 0 -0.031172 0.031962 0 -0.033383 0.030117 0 
-0.035194 0.027759 0 -0.036662 0.024988 0 -0.03785 0.021882 0 
-0.03881 0.018495 0 -0.039574 0.014851 0 -0.040148 0.010955 0 
-0.040517 0.006802 0 -0.040637 0.002394 0 -0.040451 -0.002252 0 
-0.039904 -0.00709 0 -0.038951 -0.012042 0 -0.037556 -0.016991 0 
-0.035714 -0.021791 0 -0.033459 -0.026275 0 -0.030881 -0.030282 0 
-0.028125 -0.033685 0 -0.025383 -0.03641 0 -0.022872 -0.038446 0 
-0.020793 -0.039816 0 -0.019263 -0.040499 0 -0.018244 -0.04031 0 
-0.017487 -0.038641 0 -0.016627 -0.03457 0 -0.015185 -0.027534 0 
-0.013118 -0.017858 0 -0.010512 -0.007089 0 -0.007605 0.002368 0 
-0.004653 0.008011 0 -0.001951 0.008016 0 0 0 0 
0 0 0 0.000451 -0.002051 0 0.000451 -0.003014 0 
-0.000378 -0.002349 0 -0.002281 -0.000198 0 -0.005231 0.002898 0 
-0.008981 0.006334 0 -0.013178 0.009595 0 -0.017459 0.012307 0 
-0.021495 0.01421 0 -0.025004 0.01514 0 -0.027768 0.015016 0 
-0.029625 0.013823 0 -0.030479 0.011649 0 -0.030318 0.008645 0 
-0.029197 0.005027 0 -0.027227 0.001048 0 -0.024568 -0.003023 0 
-0.02141 -0.006937 0 -0.017939 -0.010493 0 -0.014317 -0.013549 0 
-0.01067 -0.01602 0 -0.007098 -0.017872 0 -0.00368 -0.019119 0 
-0.000475 -0.019809 0 0.002476 -0.020021 0 0.005149 -0.019857 0 
0.007537 -0.019424 0 0.009658 -0.018824 0 0.011546 -0.018147 0 
0.013245 -0.017462 0 0.014806 -0.016814 0 0.016275 -0.016224 0 
0.017694 -0.015688 0 0.019094 -0.015182 0 0.020491 -0.014668 0 
0.021893 -0.014092 0 0.023294 -0.013385 0 0.024685 -0.012467 0 
0.026053 -0.011236 0 0.027391 -0.009556 0 0.028703 -0.007244 0 
0.030007 -0.004035 0 0.031332 0.000441 0 0.032696 0.006686 0 
0.034059 0.01532 0 0.035224 0.027005 0 0.035583 0.042231 0 
0.033386 0.060672 0 0.024988 0.077667 0 0 0 0 
0 0 0 0 0 0 0 0 0 
0 0 0 0 0 0 0 0 0 
0 0 0 0 0 0 0 0 0 
-0 0 0 -0.000186 0.027974 0 -0.001481 0.034755 0 
-0.003917 0.036213 0 -0.007137 0.036537 0 -0.010529 0.036862 0 
-0.013734 0.037045 0 -0.01662 0.036746 0 -0.019152 0.035788 0 
-0.021333 0.03416 0 -0.023188 0.031953 0 -0.024763 0.029283 0 
-0.026112 0.026258 0 -0.027287 0.022952 0 -0.028328 0.0194 0 
-0.029254 0.015605 0 -0.030065 0.011548 0 -0.030737 0.007205 0 
-0.031223 0.002561 0 -0.031461 -0.002379 0 -0.031391 -0.007572 0 
-0.03096 -0.012932 0 -0.030117 -0.018326 0 -0.028831 -0.023572 0 
-0.027113 -0.028455 0 -0.025028 -0.032755 0 -0.022704 -0.036282 0 
-0.020328 -0.038917 0 -0.018123 -0.040628 0 -0.016322 -0.041474 0 
-0.015113 -0.04155 0 -0.014549 -0.04085 0 -0.014446 -0.039006 0 
-0.014366 -0.035267 0 -0.01379 -0.028918 0 -0.012396 -0.019996 0 
-0.010171 -0.009823 0 -0.007399 -0.000716 0 -0.004458 0.004901 0 
-0.00177 0.005448 0 0 0 0 0 0 0 
-3.4e-05 -0.001981 0 -0.00109 -0.002115 0 -0.003189 -0.000335 0 
-0.006378 0.002914 0 -0.01047 0.006855 0 -0.015121 0.010771 0 
-0.019933 0.014137 0 -0.024525 0.016604 0 -0.028557 0.017955 0 
-0.031753 0.018077 0 -0.033913 0.017011 0 -0.034932 0.014723 0 
-0.034803 0.011466 0 -0.033622 0.00745 0 -0.031521 0.002958 0 
-0.028726 -0.001703 0 -0.025461 -0.006245 0 -0.021917 -0.010443 0 
-0.018247 -0.014132 0 -0.014558 -0.017205 0 -0.010931 -0.019602 0 
-0.007432 -0.021306 0 -0.004123 -0.022343 0 -0.001059 -0.022776 0 
0.001718 -0.0227 0 0.004182 -0.022238 0 0.006333 -0.021517 0 
0.008197 -0.020661 0 0.00982 -0.019776 0 0.011265 -0.018937 0 
0.012595 -0.018192 0 0.013874 -0.017555 0 0.015154 -0.017012 0 
0.016471 -0.016527 0 0.017847 -0.016044 0 0.019284 -0.015497 0 
0.02077 -0.014806 0 0.022282 -0.013887 0 0.023798 -0.012638 0 
0.025302 -0.010938 0 0.026799 -0.00862 0 0.028325 -0.005446 0 
0.029961 -0.001065 0 0.031827 0.005025 0 0.034083 0.013507 0 
0.036894 0.025216 0 0.040359 0.041025 0 0.044079 0.061396 0 
0.045923 0.083419 0 0 0 0 0 0 0 
0 0 0 0 0 0 0 -0 0 
0 -0 0 0 -0 0 0 -0 0 
0 -0 0 0 0 0 0 0 0 
0.001351 0.026435 0 0.002877 0.03517 0 0.002704 0.038524 0 
0.000909 0.039446 0 -0.001595 0.039794 0 -0.004153 0.03977 0 
-0.006524 0.039193 0 -0.008656 0.037943 0 -0.010549 0.036034 0 
-0.012222 0.033574 0 -0.013707 0.030695 0 -0.015043 0.027504 0 
-0.016265 0.024072 0 -0.017403 0.020421 0 -0.018473 0.016535 0 
-0.019475 0.012378 0 -0.020391 0.007909 0 -0.021178 0.003094 0 
-0.021777 -0.002073 0 -0.022133 -0.007557 0 -0.022191 -0.013275 0 
-0.021891 -0.019081 0 -0.021182 -0.024768 0 -0.020048 -0.030072 0 
-0.018525 -0.034713 0 -0.016716 -0.038434 0 -0.014787 -0.041061 0 
-0.01295 -0.042524 0 -0.011432 -0.042883 0 -0.010457 -0.042292 0 
-0.010162 -0.040941 0 -0.010468 -0.03874 0 -0.01099 -0.03518 0 
-0.011156 -0.029528 0 -0.010491 -0.021538 0 -0.008865 -0.012181 0 
-0.006522 -0.003561 0 -0.003906 0.00201 0 -0.001511 0.003145 0 
0 0 0 0 0 0 -0.00069 -0.000924 0 
-0.002987 9.7e-05 0 -0.00644 0.00303 0 -0.010882 0.007224 0 
-0.015979 0.011749 0 -0.02131 0.015839 0 -0.026451 0.018985 0 
-0.031017 0.020877 0 -0.034681 0.021353 0 -0.0372 0.020391 0 
-0.038453 0.018087 0 -0.038449 0.01463 0 -0.037364 0.010276 0 
-0.035286 0.005345 0 -0.032563 0.000179 0 -0.029419 -0.004917 0 
-0.026042 -0.009705 0 -0.022554 -0.014018 0 -0.019028 -0.017734 0 
-0.01551 -0.020769 0 -0.012048 -0.02307 0 -0.008701 -0.024615 0 
-0.00554 -0.02543 0 -0.002632 -0.025584 0 -3.3e-05 -0.025192 0 
0.002225 -0.024401 0 0.004146 -0.02337 0 0.005766 -0.022248 0 
0.007148 -0.02116 0 0.008374 -0.020192 0 0.009527 -0.019391 0 
0.010688 -0.018763 0 0.01192 -0.018278 0 0.013268 -0.017882 0 
0.01475 -0.017496 0 0.01636 -0.017034 0 0.018071 -0.016403 0 
0.019842 -0.01551 0 0.02163 -0.014258 0 0.023403 -0.012542 0 
0.025158 -0.010226 0 0.026943 -0.007121 0 0.02887 -0.002938 0 
0.031146 0.002756 0 0.034102 0.010578 0 0.03823 0.021316 0 
0.04423 0.035782 0 0.052881 0.054299 0 0.064557 0.074672 0 
0.069456 0.06979 0 0.066862 0.04192 0 0.046169 0.01449 0 
0.027857 0.002482 0 0.017416 -0.000787 0 0.012387 -0.001206 0 
0.009996 -0.001138 0 0.008682 -0.001082 0 0.00762 -0.000786 0 
0.006264 0.001106 0 0.005192 0.008287 0 0.006355 0.022686 0 
0.009223 0.033328 0 0.010835 0.038913 0 0.010432 0.041347 0 
0.008749 0.042055 0 0.00666 0.042015 0 0.004591 0.041283 0 
0.002659 0.039846 0 0.00088 0.037752 0 -0.000752 0.03512 0 
-0.002251 0.032092 0 -0.003635 0.028783 0 -0.004927 0.025259 0 
-0.00615 0.021537 0 -0.007322 0.017593 0 -0.008451 0.013377 0 
-0.009533 0.008835 0 -0.010537 0.003919 0 -0.011413 -0.001396 0 
-0.012114 -0.007094 0 -0.012594 -0.013097 0 -0.01279 -0.019259 0 
-0.012638 -0.025349 0 -0.0121 -0.031069 0 -0.011183 -0.036076 0 
-0.009959 -0.040044 0 -0.008568 -0.042728 0 -0.0072 -0.044046 0 
-0.006061 -0.044028 0 -0.005362 -0.042826 0 -0.005293 -0.040773 0 
-0.005874 -0.038056 0 -0.006839 -0.034464 0 -0.007654 -0.029378 0 
-0.007761 -0.022341 0 -0.006897 -0.013909 0 -0.005218 -0.005871 0 
-0.003161 -0.000405 0 -0.001233 0.001228 0 0 0 0 
0 0 0 -0.001462 0.001267 0 -0.005049 0.00367 0 
-0.009798 0.007674 0 -0.015333 0.012563 0 -0.021194 0.017345 0 
-0.026911 0.021251 0 -0.032051 0.023809 0 -0.036249 0.024771 0 
-0.039217 0.02406 0 -0.040817 0.021789 0 -0.041089 0.018198 0 
-0.040207 0.013589 0 -0.038334 0.008314 0 -0.035883 0.002743 0 
-0.033069 -0.002807 0 -0.03007 -0.008104 0 -0.026969 -0.012997 0 
-0.023796 -0.017367 0 -0.020558 -0.021114 0 -0.017273 -0.024144 0 
-0.013989 -0.026384 0 -0.010781 -0.027793 0 -0.007744 -0.028387 0 
-0.004968 -0.028247 0 -0.002525 -0.027511 0 -0.000449 -0.026363 0 
0.001265 -0.025001 0 0.002671 -0.023609 0 0.003852 -0.022337 0 
0.004914 -0.021281 0 0.005965 -0.020486 0 0.007102 -0.019943 0 
0.008402 -0.019602 0 0.009912 -0.019379 0 0.011641 -0.019167 0 
0.013568 -0.01885 0 0.015641 -0.018317 0 0.017792 -0.017465 0 
0.019952 -0.016203 0 0.022069 -0.014448 0 0.024128 -0.012108 0 
0.02617 -0.009056 0 0.028323 -0.005098 0 0.030831 7.8e-05 0 
0.034106 0.00692 0 0.038781 0.016004 0 0.045761 0.02786 0 
0.056153 0.042534 0 0.070336 0.058804 0 0.084078 0.06288 0 
0.089465 0.050589 0 0.082192 0.032517 0 0.068713 0.018339 0 
0.055584 0.009988 0 0.045154 0.005679 0 0.037259 0.003547 0 
0.031076 0.002523 0 0.025822 0.002332 0 0.021032 0.003765 0 
0.017232 0.008976 0 0.016264 0.0196 0 0.018248 0.030414 0 
0.020426 0.037961 0 0.021057 0.042047 0 0.020155 0.04375 0 
0.018455 0.043965 0 0.016535 0.043218 0 0.014626 0.041679 0 
0.012805 0.039461 0 0.011093 0.036703 0 0.009497 0.033554 0 
0.008013 0.030135 0 0.00663 0.02652 0 0.00533 0.022728 0 
0.00409 0.018733 0 0.002887 0.014482 0 0.001709 0.009911 0 
0.000568 0.004955 0 -0.000501 -0.000432 0 -0.001457 -0.006257 0 
-0.00227 -0.012461 0 -0.002884 -0.018897 0 -0.003232 -0.025328 0 
-0.003262 -0.031422 0 -0.002961 -0.036788 0 -0.002367 -0.041027 0 
-0.001586 -0.043812 0 -0.000781 -0.04502 0 -0.000134 -0.044724 0 
0.000166 -0.04307 0 -6.6e-05 -0.040367 0 -0.000914 -0.037062 0 
-0.002238 -0.033243 0 -0.003614 -0.028513 0 -0.004484 -0.022322 0 
-0.004477 -0.014832 0 -0.003624 -0.00744 0 -0.002291 -0.002178 0 
-0.000943 -0.000231 0 0 0 0 0 0 0 
-0.002261 0.004623 0 -0.007056 0.008515 0 -0.012923 0.013409 0 
-0.019295 0.018683 0 -0.025622 0.023355 0 -0.031409 0.02669 0 
-0.036252 0.028281 0 -0.039831 0.027982 0 -0.041856 0.025869 0 
-0.042548 0.022229 0 -0.041982 0.017455 0 -0.040502 0.011933 0 
-0.038467 0.006062 0 -0.036132 0.000167 0 -0.033655 -0.005541 0 
-0.03109 -0.010933 0 -0.028422 -0.015918 0 -0.025619 -0.020395 0 
-0.022665 -0.024245 0 -0.019585 -0.027341 0 -0.016445 -0.02957 0 
-0.013345 -0.030868 0 -0.010402 -0.031242 0 -0.007729 -0.030789 0 
-0.00541 -0.029681 0 -0.003486 -0.028149 0 -0.001939 -0.026442 0 
-0.000701 -0.024788 0 0.000339 -0.023365 0 0.001312 -0.022281 0 
0.002352 -0.021571 0 0.003576 -0.02121 0 0.005068 -0.021113 0 
0.006869 -0.021157 0 0.008975 -0.021195 0 0.011335 -0.021075 0 
0.013865 -0.020661 0 0.016467 -0.019842 0 0.019048 -0.01854 0 
0.021537 -0.0167 0 0.023906 -0.014279 0 0.026188 -0.011221 0 
0.0285 -0.007432 0 0.031074 -0.002746 0 0.034299 0.003097 0 
0.038773 0.010425 0 0.04532 0.019512 0 0.05493 0.030292 0 
0.068342 0.042144 0 0.083227 0.04917 0 0.093494 0.046783 0 
0.09707 0.038816 0 0.093023 0.029115 0 0.085456 0.021115 0 
0.076052 0.015561 0 0.066594 0.012029 0 0.057787 0.009951 0 
0.049545 0.009058 0 0.041813 0.009608 0 0.035143 0.012732 0 
0.031061 0.019544 0 0.030378 0.028461 0 0.031507 0.036475 0 
0.032386 0.04196 0 0.032121 0.044945 0 0.030866 0.045647 0 
0.029083 0.045122 0 0.027121 0.043591 0 0.025157 0.041294 0 
0.023271 0.038426 0 0.021499 0.035154 0 0.019858 0.031611 0 
0.018349 0.027882 0 0.016956 0.023996 0 0.015652 0.019937 0 
0.014402 0.015652 0 0.013175 0.01107 0 0.01196 0.006114 0 
0.010773 0.000717 0 0.009639 -0.005157 0 0.008582 -0.01147 0 
0.007641 -0.01809 0 0.006877 -0.024773 0 0.006343 -0.031167 0 
0.006061 -0.03684 0 0.006013 -0.041339 0 0.006133 -0.044262 0 
0.006298 -0.045422 0 0.006343 -0.04494 0 0.006103 -0.042897 0 
0.005435 -0.039641 0 0.004239 -0.035765 0 0.002561 -0.031594 0 
0.000685 -0.026998 0 -0.000903 -0.021468 0 -0.001775 -0.014857 0 
-0.00183 -0.008156 0 -0.001319 -0.003192 0 -0.000627 -0.001175 0 
0 0 0 0 0 0 -0.002985 0.009048 0 
-0.008795 0.014431 0 -0.015512 0.01997 0 -0.022407 0.025281 0 
-0.028868 0.029457 0 -0.034401 0.031834 0 -0.038644 0.032118 0 
-0.041351 0.030358 0 -0.042454 0.026805 0 -0.042545 0.021952 0 
-0.041629 0.016258 0 -0.040116 0.010164 0 -0.038338 0.004009 0 
-0.036454 -0.002008 0 -0.034501 -0.007794 0 -0.032433 -0.0133 0 
-0.030186 -0.018451 0 -0.027711 -0.023126 0 -0.025 -0.027163 0 
-0.022095 -0.030389 0 -0.019078 -0.032651 0 -0.016068 -0.03386 0 
-0.013199 -0.034018 0 -0.010599 -0.033237 0 -0.008367 -0.031735 0 
-0.006546 -0.029801 0 -0.005111 -0.027745 0 -0.003976 -0.025848 0 
-0.003003 -0.024323 0 -0.002032 -0.023282 0 -0.000906 -0.022753 0 
0.000508 -0.022679 0 0.002294 -0.022931 0 0.004481 -0.023331 0 
0.007036 -0.023679 0 0.009872 -0.023782 0 0.012873 -0.02348 0 
0.015914 -0.022664 0 0.018884 -0.021274 0 0.021706 -0.019291 0 
0.02435 -0.016722 0 0.02684 -0.013581 0 0.029275 -0.009862 0 
0.031843 -0.005522 0 0.034851 -0.000467 0 0.038759 0.005432 0 
0.044192 0.01228 0 0.051878 0.019995 0 0.062504 0.028285 0 
0.075329 0.034991 0 0.087117 0.037503 0 0.094942 0.03565 0 
0.097136 0.031526 0 0.095991 0.026829 0 0.092374 0.022873 0 
0.086781 0.020025 0 0.079796 0.018229 0 0.071847 0.017409 0 
0.063638 0.017625 0 0.05575 0.01931 0 0.049351 0.023198 0 
0.045617 0.029194 0 0.04441 0.035897 0 0.044379 0.041623 0 
0.044229 0.045429 0 0.043378 0.047061 0 0.041845 0.046976 0 
0.03991 0.045612 0 0.037822 0.043317 0 0.035736 0.040363 0 
0.033743 0.036959 0 0.031893 0.033264 0 0.030208 0.029384 0 
0.028682 0.025366 0 0.027287 0.021209 0 0.025981 0.016868 0 
0.024718 0.01227 0 0.023464 0.007328 0 0.022208 0.001955 0 
0.020962 -0.003907 0 0.019735 -0.010251 0 0.018552 -0.01696 0 
0.017459 -0.023796 0 0.0165 -0.030392 0 0.015697 -0.036282 0 
0.015038 -0.040975 0 0.014477 -0.044036 0 0.013929 -0.045226 0 
0.013268 -0.044525 0 0.012368 -0.042161 0 0.01113 -0.038468 0 
0.009471 -0.034096 0 0.00738 -0.029534 0 0.005023 -0.024896 0 
0.002777 -0.019816 0 0.001063 -0.013967 0 8.7e-05 -0.007959 0 
-0.000267 -0.003405 0 -0.000276 -0.00156 0 0 0 0 
0 0 0 -0.00354 0.014342 0 -0.010096 0.021145 0 
-0.017349 0.02705 0 -0.024445 0.032042 0 -0.030747 0.035352 0 
-0.035799 0.036445 0 -0.039339 0.035216 0 -0.041274 0.031939 0 
-0.041943 0.027131 0 -0.041661 0.021336 0 -0.040706 0.015054 0 
-0.039499 0.008684 0 -0.038211 0.002433 0 -0.036878 -0.003643 0 
-0.035442 -0.009542 0 -0.033815 -0.015241 0 -0.031924 -0.020647 0 
-0.029732 -0.025598 0 -0.027245 -0.029887 0 -0.024511 -0.033296 0 
-0.021622 -0.035633 0 -0.018699 -0.036781 0 -0.015887 -0.036735 0 
-0.013328 -0.035627 0 -0.011134 -0.033722 0 -0.009354 -0.031377 0 
-0.007961 -0.028977 0 -0.006853 -0.026864 0 -0.005868 -0.025289 0 
-0.004821 -0.024372 0 -0.003533 -0.024121 0 -0.001866 -0.024434 0 
0.000259 -0.025122 0 0.002846 -0.025941 0 0.005825 -0.026626 0 
0.009075 -0.026944 0 0.012451 -0.026721 0 0.015815 -0.025858 0 
0.019055 -0.024326 0 0.022104 -0.022149 0 0.024939 -0.019384 0 
0.027587 -0.0161 0 0.030128 -0.012361 0 0.032702 -0.008211 0 
0.035526 -0.003666 0 0.038903 0.001276 0 0.043235 0.006606 0 
0.048992 0.012249 0 0.056649 0.018069 0 0.066189 0.023387 0 
0.076365 0.027074 0 0.085496 0.028602 0 0.091678 0.028316 0 
0.094751 0.026992 0 0.094856 0.025506 0 0.09358 0.024406 0 
0.090617 0.023999 0 0.086173 0.024203 0 0.080592 0.025032 0 